ITEM: TIMESTEP
0
ITEM: NUMBER OF ATOMS
1020
ITEM: BOX BOUNDS pp pp pp
0.0000000000000000e+00 2.1670000000000002e+01
0.0000000000000000e+00 2.1670000000000002e+01
0.0000000000000000e+00 2.1670000000000002e+01
ITEM: ATOMS id type x y z vx vy vz
1 1 1.54818 1.54818 1.54818 0.0110882 -0.0038054 -0.00413806
2 2 0.731683 2.12553 1.54818 0.0110882 -0.0038054 -0.00413806
3 2 2.36468 2.12553 1.54818 0.0110882 -0.0038054 -0.00413806
4 1 4.64454 1.54818 1.54818 -0.00221041 -0.0100473 0.00594516
5 2 3.82804 2.12553 1.54818 -0.00221041 -0.0100473 0.00594516
6 2 5.46104 2.12553 1.54818 -0.00221041 -0.0100473 0.00594516
7 1 7.7409 1.54818 1.54818 0.00524724 -0.00125929 0.00917293
8 2 6.9244 2.12553 1.54818 0.00524724 -0.00125929 0.00917293
9 2 8.5574 2.12553 1.54818 0.00524724 -0.00125929 0.00917293
11 2 10.0208 2.12553 1.54818 -0.00878648 -0.0110819 -0.00959824
22 1 1.54818 4.64454 1.54818 0.0110103 0.0051722 -0.00992368
23 2 0.731683 5.22189 1.54818 0.0110103 0.0051722 -0.00992368
24 2 2.36468 5.22189 1.54818 0.0110103 0.0051722 -0.00992368
25 1 4.64454 4.64454 1.54818 -0.00815468 -0.00576932 0.000764616
26 2 3.82804 5.22189 1.54818 -0.00815468 -0.00576932 0.000764616
27 2 5.46104 5.22189 1.54818 -0.00815468 -0.00576932 0.000764616
28 1 7.7409 4.64454 1.54818 -0.00989187 -0.00917641 -0.00161833
29 2 6.9244 5.22189 1.54818 -0.00989187 -0.00917641 -0.00161833
30 2 8.5574 5.22189 1.54818 -0.00989187 -0.00917641 -0.00161833
32 2 10.0208 5.22189 1.54818 -0.0102432 -0.0029456 0.000560133
43 1 1.54818 7.7409 1.54818 0.0110094 -0.00366422 0.00650876
44 2 0.731683 8.31825 1.54818 0.0110094 -0.00366422 0.00650876
45 2 2.36468 8.31825 1.54818 0.0110094 -0.00366422 0.00650876
46 1 4.64454 7.7409 1.54818 -0.00428435 0.00104061 -0.00247056
47 2 3.82804 8.31825 1.54818 -0.00428435 0.00104061 -0.00247056
48 2 5.46104 8.31825 1.54818 -0.00428435 0.00104061 -0.00247056
49 1 7.7409 7.7409 1.54818 0.00961836 0.00825388 0.0105831
50 2 6.9244 8.31825 1.54818 0.00961836 0.00825388 0.0105831
51 2 8.5574 8.31825 1.54818 0.00961836 0.00825388 0.0105831
53 2 10.0208 8.31825 1.54818 0.00766722 -0.00372657 0.00778433
148 1 1.54818 1.54818 4.64454 -0.00298696 0.00521945 -0.00609931
149 2 0.731683 2.12553 4.64454 -0.00298696 0.00521945 -0.00609931
150 2 2.36468 2.12553 4.64454 -0.00298696 0.00521945 -0.00609931
151 1 4.64454 1.54818 4.64454 -5.29867e-05 -0.00501684 0.00784904
152 2 3.82804 2.12553 4.64454 -5.29867e-05 -0.00501684 0.00784904
153 2 5.46104 2.12553 4.64454 -5.29867e-05 -0.00501684 0.00784904
154 1 7.7409 1.54818 4.64454 -0.00715213 -0.00973273 -0.000918643
155 2 6.9244 2.12553 4.64454 -0.00715213 -0.00973273 -0.000918643
156 2 8.5574 2.12553 4.64454 -0.00715213 -0.00973273 -0.000918643
158 2 10.0208 2.12553 4.64454 -0.00571368 -0.00932851 0.00816739
169 1 1.54818 4.64454 4.64454 0.00271281 -0.00682676 0.00885637
170 2 0.731683 5.22189 4.64454 0.00271281 -0.00682676 0.00885637
171 2 2.36468 5.22189 4.64454 0.00271281 -0.00682676 0.00885637
172 1 4.64454 4.64454 4.64454 0.0112395 -0.00411004 -0.00511767
173 2 3.82804 5.22189 4.64454 0.0112395 -0.00411004 -0.00511767
174 2 5.46104 5.22189 4.64454 0.0112395 -0.00411004 -0.00511767
175 1 7.7409 4.64454 4.64454 -0.00120748 0.00547624 -0.00716234
176 2 6.9244 5.22189 4.64454 -0.00120748 0.00547624 -0.00716234
177 2 8.5574 5.22189 4.64454 -0.00120748 0.00547624 -0.00716234
179 2 10.0208 5.22189 4.64454 0.00681738 0.00514647 0.00958994
190 1 1.54818 7.7409 4.64454 0.00074729 0.00171966 0.00254875
191 2 0.731683 8.31825 4.64454 0.00074729 0.00171966 0.00254875
192 2 2.36468 8.31825 4.64454 0.00074729 0.00171966 0.00254875
193 1 4.64454 7.7409 4.64454 -0.00852756 0.000469629 -0.00659706
194 2 3.82804 8.31825 4.64454 -0.00852756 0.000469629 -0.00659706
195 2 5.46104 8.31825 4.64454 -0.00852756 0.000469629 -0.00659706
196 1 7.7409 7.7409 4.64454 -0.00319616 0.00415075 0.00672138
197 2 6.9244 8.31825 4.64454 -0.00319616 0.00415075 0.00672138
198 2 8.5574 8.31825 4.64454 -0.00319616 0.00415075 0.00672138
200 2 10.0208 8.31825 4.64454 0.00734031 -0.00590532 0.00568895
295 1 1.54818 1.54818 7.7409 0.0110828 0.0100606 0.00403973
296 2 0.731683 2.12553 7.7409 0.0110828 0.0100606 0.00403973
297 2 2.36468 2.12553 7.7409 0.0110828 0.0100606 0.00403973
298 1 4.64454 1.54818 7.7409 -0.00222664 0.00802227 0.00434668
299 2 3.82804 2.12553 7.7409 -0.00222664 0.00802227 0.00434668
300 2 5.46104 2.12553 7.7409 -0.00222664 0.00802227 0.00434668
301 1 7.7409 1.54818 7.7409 -0.00879202 0.0046354 0.00769917
302 2 6.9244 2.12553 7.7409 -0.00879202 0.0046354 0.00769917
303 2 8.5574 2.12553 7.7409 -0.00879202 0.0046354 0.00769917
305 2 10.0208 2.12553 7.7409 0.00409895 -0.00613732 -0.00095628
316 1 1.54818 4.64454 7.7409 0.0056527 0.0087261 -0.0105024
317 2 0.731683 5.22189 7.7409 0.0056527 0.0087261 -0.0105024
318 2 2.36468 5.22189 7.7409 0.0056527 0.0087261 -0.0105024
319 1 4.64454 4.64454 7.7409 0.0109164 0.00356341 -0.00972757
320 2 3.82804 5.22189 7.7409 0.0109164 0.00356341 -0.00972757
321 2 5.46104 5.22189 7.7409 0.0109164 0.00356341 -0.00972757
322 1 7.7409 4.64454 7.7409 0.00037328 -0.00389841 -0.00420052
323 2 6.9244 5.22189 7.7409 0.00037328 -0.00389841 -0.00420052
324 2 8.5574 5.22189 7.7409 0.00037328 -0.00389841 -0.00420052
326 2 10.0208 5.22189 7.7409 -0.00678079 -0.00146899 -0.0102408
337 1 1.54818 7.7409 7.7409 -0.00872132 -0.000272697 0.00956308
338 2 0.731683 8.31825 7.7409 -0.00872132 -0.000272697 0.00956308
339 2 2.36468 8.31825 7.7409 -0.00872132 -0.000272697 0.00956308
340 1 4.64454 7.7409 7.7409 0.00931591 -0.00964215 0.0102629
341 2 3.82804 8.31825 7.7409 0.00931591 -0.00964215 0.0102629
342 2 5.46104 8.31825 7.7409 0.00931591 -0.00964215 0.0102629
343 1 7.7409 7.7409 7.7409 0.010449 0.00706297 -0.00142285
344 2 6.9244 8.31825 7.7409 0.010449 0.00706297 -0.00142285
345 2 8.5574 8.31825 7.7409 0.010449 0.00706297 -0.00142285
347 2 10.0208 8.31825 7.7409 -0.00727842 0.00863232 -0.00399449
442 1 1.54818 1.54818 10.8373 0.00146091 -0.00616575 0.00176857
443 2 0.731683 2.12553 10.8373 0.00146091 -0.00616575 0.00176857
444 2 2.36468 2.12553 10.8373 0.00146091 -0.00616575 0.00176857
445 1 4.64454 1.54818 10.8373 0.00486112 0.00425001 -0.00607762
446 2 3.82804 2.12553 10.8373 0.00486112 0.00425001 -0.00607762
447 2 5.46104 2.12553 10.8373 0.00486112 0.00425001 -0.00607762
448 1 7.7409 1.54818 10.8373 0.00891068 -0.0063755 -0.00272058
449 2 6.9244 2.12553 10.8373 0.00891068 -0.0063755 -0.00272058
450 2 8.5574 2.12553 10.8373 0.00891068 -0.0063755 -0.00272058
452 2 10.0208 2.12553 10.8373 0.00675827 0.00583356 0.00752238
463 1 1.54818 4.64454 10.8373 -0.0102914 -0.00173514 -0.00731952
464 2 0.731683 5.22189 10.8373 -0.0102914 -0.00173514 -0.00731952
465 2 2.36468 5.22189 10.8373 -0.0102914 -0.00173514 -0.00731952
466 1 4.64454 4.64454 10.8373 -0.010446 -0.00398521 -0.00110637
467 2 3.82804 5.22189 10.8373 -0.010446 -0.00398521 -0.00110637
468 2 5.46104 5.22189 10.8373 -0.010446 -0.00398521 -0.00110637
469 1 7.7409 4.64454 10.8373 -0.00278487 -0.0080212 0.0059586
470 2 6.9244 5.22189 10.8373 -0.00278487 -0.0080212 0.0059586
471 2 8.5574 5.22189 10.8373 -0.00278487 -0.0080212 0.0059586
473 2 10.0208 5.22189 10.8373 0.00343198 -0.00464455 -0.00244268
484 1 1.54818 7.7409 10.8373 0.00403231 -0.00666858 0.000604441
485 2 0.731683 8.31825 10.8373 0.00403231 -0.00666858 0.000604441
486 2 2.36468 8.31825 10.8373 0.00403231 -0.00666858 0.000604441
487 1 4.64454 7.7409 10.8373 0.0103178 0.0091933 0.00186932
488 2 3.82804 8.31825 10.8373 0.0103178 0.0091933 0.00186932
489 2 5.46104 8.31825 10.8373 0.0103178 0.0091933 0.00186932
490 1 7.7409 7.7409 10.8373 -0.00161738 -0.000950068 0.00226893
491 2 6.9244 8.31825 10.8373 -0.00161738 -0.000950068 0.00226893
492 2 8.5574 8.31825 10.8373 -0.00161738 -0.000950068 0.00226893
494 2 10.0208 8.31825 10.8373 0.0095224 -0.00390595 -0.00882821
589 1 1.54818 1.54818 13.9336 -0.00461334 0.0077972 0.00319262
590 2 0.731683 2.12553 13.9336 -0.00461334 0.0077972 0.00319262
591 2 2.36468 2.12553 13.9336 -0.00461334 0.0077972 0.00319262
592 1 4.64454 1.54818 13.9336 -0.0101111 0.00765506 0.00479023
593 2 3.82804 2.12553 13.9336 -0.0101111 0.00765506 0.00479023
594 2 5.46104 2.12553 13.9336 -0.0101111 0.00765506 0.00479023
595 1 7.7409 1.54818 13.9336 0.000115906 -0.00311914 0.00158758
596 2 6.9244 2.12553 13.9336 0.000115906 -0.00311914 0.00158758
597 2 8.5574 2.12553 13.9336 0.000115906 -0.00311914 0.00158758
599 2 10.0208 2.12553 13.9336 -0.00452533 -0.00166231 0.00352662
610 1 1.54818 4.64454 13.9336 -0.0014007 -0.00258793 -0.00609778
611 2 0.731683 5.22189 13.9336 -0.0014007 -0.00258793 -0.00609778
612 2 2.36468 5.22189 13.9336 -0.0014007 -0.00258793 -0.00609778
613 1 4.64454 4.64454 13.9336 0.00805155 -0.0110965 -0.00897814
614 2 3.82804 5.22189 13.9336 0.00805155 -0.0110965 -0.00897814
615 2 5.46104 5.22189 13.9336 0.00805155 -0.0110965 -0.00897814
616 1 7.7409 4.64454 13.9336 -0.00355724 0.00543426 0.00079581
617 2 6.9244 5.22189 13.9336 -0.00355724 0.00543426 0.00079581
618 2 8.5574 5.22189 13.9336 -0.00355724 0.00543426 0.00079581
620 2 10.0208 5.22189 13.9336 -0.00244316 0.00283106 0.00810457
631 1 1.54818 7.7409 13.9336 0.00925621 -0.00114246 0.00276408
632 2 0.731683 8.31825 13.9336 0.00925621 -0.00114246 0.00276408
633 2 2.36468 8.31825 13.9336 0.00925621 -0.00114246 0.00276408
634 1 4.64454 7.7409 13.9336 0.0113246 0.000546068 0.000711803
635 2 3.82804 8.31825 13.9336 0.0113246 0.000546068 0.000711803
636 2 5.46104 8.31825 13.9336 0.0113246 0.000546068 0.000711803
637 1 7.7409 7.7409 13.9336 -0.00192456 0.00404044 -0.00992602
638 2 6.9244 8.31825 13.9336 -0.00192456 0.00404044 -0.00992602
639 2 8.5574 8.31825 13.9336 -0.00192456 0.00404044 -0.00992602
641 2 10.0208 8.31825 13.9336 -0.00496878 1.10159e-05 0.00926314
736 1 1.54818 1.54818 17.03 -0.00635571 -0.00922556 0.0102797
737 2 0.731683 2.12553 17.03 -0.00635571 -0.00922556 0.0102797
738 2 2.36468 2.12553 17.03 -0.00635571 -0.00922556 0.0102797
739 1 4.64454 1.54818 17.03 -0.00290496 0.00115188 0.0093992
740 2 3.82804 2.12553 17.03 -0.00290496 0.00115188 0.0093992
741 2 5.46104 2.12553 17.03 -0.00290496 0.00115188 0.0093992
742 1 7.7409 1.54818 17.03 -0.00160955 0.00466391 -0.00139645
743 2 6.9244 2.12553 17.03 -0.00160955 0.00466391 -0.00139645
744 2 8.5574 2.12553 17.03 -0.00160955 0.00466391 -0.00139645
746 2 10.0208 2.12553 17.03 0.00113163 0.0058472 -0.00883677
757 1 1.54818 4.64454 17.03 0.0108475 -0.00842837 0.00344514
758 2 0.731683 5.22189 17.03 0.0108475 -0.00842837 0.00344514
759 2 2.36468 5.22189 17.03 0.0108475 -0.00842837 0.00344514
760 1 4.64454 4.64454 17.03 0.00341561 -0.0101691 -0.00925826
761 2 3.82804 5.22189 17.03 0.00341561 -0.0101691 -0.00925826
762 2 5.46104 5.22189 17.03 0.00341561 -0.0101691 -0.00925826
763 1 7.7409 4.64454 17.03 0.00222735 -0.00816125 -0.00860554
764 2 6.9244 5.22189 17.03 0.00222735 -0.00816125 -0.00860554
765 2 8.5574 5.22189 17.03 0.00222735 -0.00816125 -0.00860554
767 2 10.0208 5.22189 17.03 -0.00474391 0.00415209 0.00328241
778 1 1.54818 7.7409 17.03 0.00368301 0.0028904 -0.00997805
779 2 0.731683 8.31825 17.03 0.00368301 0.0028904 -0.00997805
780 2 2.36468 8.31825 17.03 0.00368301 0.0028904 -0.00997805
781 1 4.64454 7.7409 17.03 0.00706721 0.00996439 0.00897416
782 2 3.82804 8.31825 17.03 0.00706721 0.00996439 0.00897416
783 2 5.46104 8.31825 17.03 0.00706721 0.00996439 0.00897416
784 1 7.7409 7.7409 17.03 0.00102051 -0.00430851 -0.00664036
785 2 6.9244 8.31825 17.03 0.00102051 -0.00430851 -0.00664036
786 2 8.5574 8.31825 17.03 0.00102051 -0.00430851 -0.00664036
788 2 10.0208 8.31825 17.03 -0.00776026 0.0085282 0.00762767
883 1 1.54818 1.54818 20.1263 -0.00562697 0.0055115 -0.00655557
884 2 0.731683 2.12553 20.1263 -0.00562697 0.0055115 -0.00655557
885 2 2.36468 2.12553 20.1263 -0.00562697 0.0055115 -0.00655557
886 1 4.64454 1.54818 20.1263 -0.00956581 -0.00162089 -0.00709527
887 2 3.82804 2.12553 20.1263 -0.00956581 -0.00162089 -0.00709527
888 2 5.46104 2.12553 20.1263 -0.00956581 -0.00162089 -0.00709527
889 1 7.7409 1.54818 20.1263 0.00280072 -0.00110709 0.00688605
890 2 6.9244 2.12553 20.1263 0.00280072 -0.00110709 0.00688605
891 2 8.5574 2.12553 20.1263 0.00280072 -0.00110709 0.00688605
893 2 10.0208 2.12553 20.1263 -4.93803e-05 -0.00744656 0.0101909
904 1 1.54818 4.64454 20.1263 -0.00316431 -0.000514672 -0.00117601
905 2 0.731683 5.22189 20.1263 -0.00316431 -0.000514672 -0.00117601
906 2 2.36468 5.22189 20.1263 -0.00316431 -0.000514672 -0.00117601
907 1 4.64454 4.64454 20.1263 0.00270471 0.000342123 0.000222259
908 2 3.82804 5.22189 20.1263 0.00270471 0.000342123 0.000222259
909 2 5.46104 5.22189 20.1263 0.00270471 0.000342123 0.000222259
910 1 7.7409 4.64454 20.1263 0.00221111 0.00827214 -0.0057598
911 2 6.9244 5.22189 20.1263 0.00221111 0.00827214 -0.0057598
912 2 8.5574 5.22189 20.1263 0.00221111 0.00827214 -0.0057598
914 2 10.0208 5.22189 20.1263 0.00272314 -0.00212989 -0.000922366
925 1 1.54818 7.7409 20.1263 -0.00374864 0.00950564 0.000161257
926 2 0.731683 8.31825 20.1263 -0.00374864 0.00950564 0.000161257
927 2 2.36468 8.31825 20.1263 -0.00374864 0.00950564 0.000161257
928 1 4.64454 7.7409 20.1263 0.0113 -0.00432028 0.0095471
929 2 3.82804 8.31825 20.1263 0.0113 -0.00432028 0.0095471
930 2 5.46104 8.31825 20.1263 0.0113 -0.00432028 0.0095471
931 1 7.7409 7.7409 20.1263 0.00462841 0.00209479 0.00589298
932 2 6.9244 8.31825 20.1263 0.00462841 0.00209479 0.00589298
933 2 8.5574 8.31825 20.1263 0.00462841 0.00209479 0.00589298
935 2 10.0208 8.31825 20.1263 0.00248959 -0.00986543 0.00153988
64 1 1.54818 10.8373 1.54818 0.00970888 0.00938084 0.00317899
65 2 0.731683 11.4146 1.54818 0.00970888 0.00938084 0.00317899
66 2 2.36468 11.4146 1.54818 0.00970888 0.00938084 0.00317899
67 1 4.64454 10.8373 1.54818 -0.00153189 0.00192744 -0.000516535
68 2 3.82804 11.4146 1.54818 -0.00153189 0.00192744 -0.000516535
69 2 5.46104 11.4146 1.54818 -0.00153189 0.00192744 -0.000516535
70 1 7.7409 10.8373 1.54818 0.00876719 -0.00474664 0.00477956
71 2 6.9244 11.4146 1.54818 0.00876719 -0.00474664 0.00477956
72 2 8.5574 11.4146 1.54818 0.00876719 -0.00474664 0.00477956
74 2 10.0208 11.4146 1.54818 -0.00256789 -0.00741816 -0.00643941
85 1 1.54818 13.9336 1.54818 -0.000453921 0.00596879 -0.00502367
86 2 0.731683 14.511 1.54818 -0.000453921 0.00596879 -0.00502367
87 2 2.36468 14.511 1.54818 -0.000453921 0.00596879 -0.00502367
88 1 4.64454 13.9336 1.54818 -0.00756454 -0.0111985 -0.00665785
89 2 3.82804 14.511 1.54818 -0.00756454 -0.0111985 -0.00665785
90 2 5.46104 14.511 1.54818 -0.00756454 -0.0111985 -0.00665785
91 1 7.7409 13.9336 1.54818 0.00984284 -0.0112173 0.00146643
92 2 6.9244 14.511 1.54818 0.00984284 -0.0112173 0.00146643
93 2 8.5574 14.511 1.54818 0.00984284 -0.0112173 0.00146643
95 2 10.0208 14.511 1.54818 -0.00830859 0.00486171 0.00852122
106 1 1.54818 17.03 1.54818 -0.00808333 0.0102478 -0.0048282
107 2 0.731683 17.6073 1.54818 -0.00808333 0.0102478 -0.0048282
108 2 2.36468 17.6073 1.54818 -0.00808333 0.0102478 -0.0048282
109 1 4.64454 17.03 1.54818 0.00839893 -0.00637155 -0.00497255
110 2 3.82804 17.6073 1.54818 0.00839893 -0.00637155 -0.00497255
111 2 5.46104 17.6073 1.54818 0.00839893 -0.00637155 -0.00497255
112 1 7.7409 17.03 1.54818 -0.0100505 -0.00276209 -0.00830946
113 2 6.9244 17.6073 1.54818 -0.0100505 -0.00276209 -0.00830946
114 2 8.5574 17.6073 1.54818 -0.0100505 -0.00276209 -0.00830946
116 2 10.0208 17.6073 1.54818 -0.0103813 -0.00810719 0.00839795
127 1 1.54818 20.1263 1.54818 0.00709953 -0.00265757 -0.0105492
128 2 0.731683 20.7037 1.54818 0.00709953 -0.00265757 -0.0105492
129 2 2.36468 20.7037 1.54818 0.00709953 -0.00265757 -0.0105492
130 1 4.64454 20.1263 1.54818 -0.00394297 -0.00857886 -0.00358555
131 2 3.82804 20.7037 1.54818 -0.00394297 -0.00857886 -0.00358555
132 2 5.46104 20.7037 1.54818 -0.00394297 -0.00857886 -0.00358555
133 1 7.7409 20.1263 1.54818 0.00921229 -0.00787122 0.00957006
134 2 6.9244 20.7037 1.54818 0.00921229 -0.00787122 0.00957006
135 2 8.5574 20.7037 1.54818 0.00921229 -0.00787122 0.00957006
137 2 10.0208 20.7037 1.54818 -0.00998377 -0.00462119 -0.0033089
211 1 1.54818 10.8373 4.64454 -0.00342862 0.00671338 0.00578895
212 2 0.731683 11.4146 4.64454 -0.00342862 0.00671338 0.00578895
213 2 2.36468 11.4146 4.64454 -0.00342862 0.00671338 0.00578895
214 1 4.64454 10.8373 4.64454 -0.00379269 0.00053207 -0.000267926
215 2 3.82804 11.4146 4.64454 -0.00379269 0.00053207 -0.000267926
216 2 5.46104 11.4146 4.64454 -0.00379269 0.00053207 -0.000267926
217 1 7.7409 10.8373 4.64454 -0.00743034 0.00146414 -0.0105936
218 2 6.9244 11.4146 4.64454 -0.00743034 0.00146414 -0.0105936
219 2 8.5574 11.4146 4.64454 -0.00743034 0.00146414 -0.0105936
221 2 10.0208 11.4146 4.64454 0.000184638 -0.000591352 -0.00493586
232 1 1.54818 13.9336 4.64454 0.00813659 0.00988996 -0.0100806
233 2 0.731683 14.511 4.64454 0.00813659 0.00988996 -0.0100806
234 2 2.36468 14.511 4.64454 0.00813659 0.00988996 -0.0100806
235 1 4.64454 13.9336 4.64454 -0.00456871 -0.00529836 0.00400137
236 2 3.82804 14.511 4.64454 -0.00456871 -0.00529836 0.00400137
237 2 5.46104 14.511 4.64454 -0.00456871 -0.00529836 0.00400137
238 1 7.7409 13.9336 4.64454 -0.0099422 -0.00664039 -0.0101095
239 2 6.9244 14.511 4.64454 -0.0099422 -0.00664039 -0.0101095
240 2 8.5574 14.511 4.64454 -0.0099422 -0.00664039 -0.0101095
242 2 10.0208 14.511 4.64454 0.00587825 -0.00304612 -0.00959604
253 1 1.54818 17.03 4.64454 -0.00231253 0.00336879 -0.00640488
254 2 0.731683 17.6073 4.64454 -0.00231253 0.00336879 -0.00640488
255 2 2.36468 17.6073 4.64454 -0.00231253 0.00336879 -0.00640488
256 1 4.64454 17.03 4.64454 0.00304434 -0.00218432 -0.00648267
257 2 3.82804 17.6073 4.64454 0.00304434 -0.00218432 -0.00648267
258 2 5.46104 17.6073 4.64454 0.00304434 -0.00218432 -0.00648267
259 1 7.7409 17.03 4.64454 -0.00604678 -0.00985551 0.00870506
260 2 6.9244 17.6073 4.64454 -0.00604678 -0.00985551 0.00870506
261 2 8.5574 17.6073 4.64454 -0.00604678 -0.00985551 0.00870506
263 2 10.0208 17.6073 4.64454 -0.0103087 0.00731965 0.00204391
274 1 1.54818 20.1263 4.64454 0.00969843 0.00985751 -0.00360708
275 2 0.731683 20.7037 4.64454 0.00969843 0.00985751 -0.00360708
276 2 2.36468 20.7037 4.64454 0.00969843 0.00985751 -0.00360708
277 1 4.64454 20.1263 4.64454 -0.00182529 0.00273902 0.0049773
278 2 3.82804 20.7037 4.64454 -0.00182529 0.00273902 0.0049773
279 2 5.46104 20.7037 4.64454 -0.00182529 0.00273902 0.0049773
280 1 7.7409 20.1263 4.64454 0.00249071 -0.00584927 0.00585372
281 2 6.9244 20.7037 4.64454 0.00249071 -0.00584927 0.00585372
282 2 8.5574 20.7037 4.64454 0.00249071 -0.00584927 0.00585372
284 2 10.0208 20.7037 4.64454 0.00023995 -0.0104199 -0.00386883
358 1 1.54818 10.8373 7.7409 0.00453918 -0.00143226 -0.00354457
359 2 0.731683 11.4146 7.7409 0.00453918 -0.00143226 -0.00354457
360 2 2.36468 11.4146 7.7409 0.00453918 -0.00143226 -0.00354457
361 1 4.64454 10.8373 7.7409 -0.00589227 -0.000717906 -0.00786262
362 2 3.82804 11.4146 7.7409 -0.00589227 -0.000717906 -0.00786262
363 2 5.46104 11.4146 7.7409 -0.00589227 -0.000717906 -0.00786262
364 1 7.7409 10.8373 7.7409 -0.00364031 0.000273549 -0.00498354
365 2 6.9244 11.4146 7.7409 -0.00364031 0.000273549 -0.00498354
366 2 8.5574 11.4146 7.7409 -0.00364031 0.000273549 -0.00498354
368 2 10.0208 11.4146 7.7409 -0.0100034 0.0104442 -0.00932106
379 1 1.54818 13.9336 7.7409 0.00415724 0.00474519 0.00786508
380 2 0.731683 14.511 7.7409 0.00415724 0.00474519 0.00786508
381 2 2.36468 14.511 7.7409 0.00415724 0.00474519 0.00786508
382 1 4.64454 13.9336 7.7409 -0.0041681 0.00186318 0.00392917
383 2 3.82804 14.511 7.7409 -0.0041681 0.00186318 0.00392917
384 2 5.46104 14.511 7.7409 -0.0041681 0.00186318 0.00392917
385 1 7.7409 13.9336 7.7409 0.00720184 0.00278448 -0.0100053
386 2 6.9244 14.511 7.7409 0.00720184 0.00278448 -0.0100053
387 2 8.5574 14.511 7.7409 0.00720184 0.00278448 -0.0100053
389 2 10.0208 14.511 7.7409 0.00783742 -0.00227084 -0.00325527
400 1 1.54818 17.03 7.7409 0.00113835 -0.00963817 0.00756019
401 2 0.731683 17.6073 7.7409 0.00113835 -0.00963817 0.00756019
402 2 2.36468 17.6073 7.7409 0.00113835 -0.00963817 0.00756019
403 1 4.64454 17.03 7.7409 0.00445333 -0.00578903 0.00485973
404 2 3.82804 17.6073 7.7409 0.00445333 -0.00578903 0.00485973
405 2 5.46104 17.6073 7.7409 0.00445333 -0.00578903 0.00485973
406 1 7.7409 17.03 7.7409 -0.00481318 0.00616172 0.00432044
407 2 6.9244 17.6073 7.7409 -0.00481318 0.00616172 0.00432044
408 2 8.5574 17.6073 7.7409 -0.00481318 0.00616172 0.00432044
410 2 10.0208 17.6073 7.7409 -0.00543999 -0.00757168 -0.000265861
421 1 1.54818 20.1263 7.7409 -0.00965279 0.0106654 0.00191352
422 2 0.731683 20.7037 7.7409 -0.00965279 0.0106654 0.00191352
423 2 2.36468 20.7037 7.7409 -0.00965279 0.0106654 0.00191352
424 1 4.64454 20.1263 7.7409 0.00951289 -0.0079653 -0.00323625
425 2 3.82804 20.7037 7.7409 0.00951289 -0.0079653 -0.00323625
426 2 5.46104 20.7037 7.7409 0.00951289 -0.0079653 -0.00323625
427 1 7.7409 20.1263 7.7409 -0.00328963 0.00473851 -0.00334542
428 2 6.9244 20.7037 7.7409 -0.00328963 0.00473851 -0.00334542
429 2 8.5574 20.7037 7.7409 -0.00328963 0.00473851 -0.00334542
431 2 10.0208 20.7037 7.7409 0.00594335 -0.0101529 0.00465511
505 1 1.54818 10.8373 10.8373 -0.00538898 0.0020061 -0.0069288
506 2 0.731683 11.4146 10.8373 -0.00538898 0.0020061 -0.0069288
507 2 2.36468 11.4146 10.8373 -0.00538898 0.0020061 -0.0069288
508 1 4.64454 10.8373 10.8373 -0.00418337 -0.00342247 0.00922003
509 2 3.82804 11.4146 10.8373 -0.00418337 -0.00342247 0.00922003
510 2 5.46104 11.4146 10.8373 -0.00418337 -0.00342247 0.00922003
511 1 7.7409 10.8373 10.8373 -0.00110009 -0.00907822 0.00349005
512 2 6.9244 11.4146 10.8373 -0.00110009 -0.00907822 0.00349005
513 2 8.5574 11.4146 10.8373 -0.00110009 -0.00907822 0.00349005
515 2 10.0208 11.4146 10.8373 -0.0104711 -0.00963622 0.00772728
526 1 1.54818 13.9336 10.8373 -0.00239061 0.00869791 0.00764757
527 2 0.731683 14.511 10.8373 -0.00239061 0.00869791 0.00764757
528 2 2.36468 14.511 10.8373 -0.00239061 0.00869791 0.00764757
529 1 4.64454 13.9336 10.8373 -0.0105997 0.0106822 0.00127914
530 2 3.82804 14.511 10.8373 -0.0105997 0.0106822 0.00127914
531 2 5.46104 14.511 10.8373 -0.0105997 0.0106822 0.00127914
532 1 7.7409 13.9336 10.8373 0.0104532 0.00482059 -0.0061705
533 2 6.9244 14.511 10.8373 0.0104532 0.00482059 -0.0061705
534 2 8.5574 14.511 10.8373 0.0104532 0.00482059 -0.0061705
536 2 10.0208 14.511 10.8373 -0.00323216 0.00654026 -0.000577096
547 1 1.54818 17.03 10.8373 0.00500572 0.0100864 -0.0065688
548 2 0.731683 17.6073 10.8373 0.00500572 0.0100864 -0.0065688
549 2 2.36468 17.6073 10.8373 0.00500572 0.0100864 -0.0065688
550 1 4.64454 17.03 10.8373 0.00719845 0.00481574 0.00156178
551 2 3.82804 17.6073 10.8373 0.00719845 0.00481574 0.00156178
552 2 5.46104 17.6073 10.8373 0.00719845 0.00481574 0.00156178
553 1 7.7409 17.03 10.8373 -0.00155504 -0.0079655 0.000915922
554 2 6.9244 17.6073 10.8373 -0.00155504 -0.0079655 0.000915922
555 2 8.5574 17.6073 10.8373 -0.00155504 -0.0079655 0.000915922
557 2 10.0208 17.6073 10.8373 0.00388593 -0.00231278 0.00490699
568 1 1.54818 20.1263 10.8373 -0.00922369 0.00731275 0.0104355
569 2 0.731683 20.7037 10.8373 -0.00922369 0.00731275 0.0104355
570 2 2.36468 20.7037 10.8373 -0.00922369 0.00731275 0.0104355
571 1 4.64454 20.1263 10.8373 0.00101861 -0.00559437 0.00659321
572 2 3.82804 20.7037 10.8373 0.00101861 -0.00559437 0.00659321
573 2 5.46104 20.7037 10.8373 0.00101861 -0.00559437 0.00659321
574 1 7.7409 20.1263 10.8373 -0.00177575 -0.00591686 0.00566254
575 2 6.9244 20.7037 10.8373 -0.00177575 -0.00591686 0.00566254
576 2 8.5574 20.7037 10.8373 -0.00177575 -0.00591686 0.00566254
578 2 10.0208 20.7037 10.8373 0.00224718 0.00703345 -0.00743217
652 1 1.54818 10.8373 13.9336 -0.0091445 -0.000968203 -0.00971584
653 2 0.731683 11.4146 13.9336 -0.0091445 -0.000968203 -0.00971584
654 2 2.36468 11.4146 13.9336 -0.0091445 -0.000968203 -0.00971584
655 1 4.64454 10.8373 13.9336 -0.0104807 -0.00268179 -0.00214842
656 2 3.82804 11.4146 13.9336 -0.0104807 -0.00268179 -0.00214842
657 2 5.46104 11.4146 13.9336 -0.0104807 -0.00268179 -0.00214842
658 1 7.7409 10.8373 13.9336 0.0107305 0.00433924 0.00392474
659 2 6.9244 11.4146 13.9336 0.0107305 0.00433924 0.00392474
660 2 8.5574 11.4146 13.9336 0.0107305 0.00433924 0.00392474
662 2 10.0208 11.4146 13.9336 -0.00252274 -0.00737646 0.00960482
673 1 1.54818 13.9336 13.9336 -0.00965569 0.00836075 -0.000458106
674 2 0.731683 14.511 13.9336 -0.00965569 0.00836075 -0.000458106
675 2 2.36468 14.511 13.9336 -0.00965569 0.00836075 -0.000458106
676 1 4.64454 13.9336 13.9336 -0.00758437 -0.00786543 0.00165071
677 2 3.82804 14.511 13.9336 -0.00758437 -0.00786543 0.00165071
678 2 5.46104 14.511 13.9336 -0.00758437 -0.00786543 0.00165071
679 1 7.7409 13.9336 13.9336 0.00808315 -0.00128444 -0.000562936
680 2 6.9244 14.511 13.9336 0.00808315 -0.00128444 -0.000562936
681 2 8.5574 14.511 13.9336 0.00808315 -0.00128444 -0.000562936
683 2 10.0208 14.511 13.9336 -0.00464027 -0.00901597 -0.00570959
694 1 1.54818 17.03 13.9336 -0.00646086 0.00203753 0.0100326
695 2 0.731683 17.6073 13.9336 -0.00646086 0.00203753 0.0100326
696 2 2.36468 17.6073 13.9336 -0.00646086 0.00203753 0.0100326
697 1 4.64454 17.03 13.9336 -0.0067681 0.00739609 0.00857725
698 2 3.82804 17.6073 13.9336 -0.0067681 0.00739609 0.00857725
699 2 5.46104 17.6073 13.9336 -0.0067681 0.00739609 0.00857725
700 1 7.7409 17.03 13.9336 0.00817974 6.44605e-06 -0.000581402
701 2 6.9244 17.6073 13.9336 0.00817974 6.44605e-06 -0.000581402
702 2 8.5574 17.6073 13.9336 0.00817974 6.44605e-06 -0.000581402
704 2 10.0208 17.6073 13.9336 0.00913811 0.00159702 -0.00491872
715 1 1.54818 20.1263 13.9336 -0.000283251 0.001967 0.000198098
716 2 0.731683 20.7037 13.9336 -0.000283251 0.001967 0.000198098
717 2 2.36468 20.7037 13.9336 -0.000283251 0.001967 0.000198098
718 1 4.64454 20.1263 13.9336 0.00260473 -0.00877673 -0.00253059
719 2 3.82804 20.7037 13.9336 0.00260473 -0.00877673 -0.00253059
720 2 5.46104 20.7037 13.9336 0.00260473 -0.00877673 -0.00253059
721 1 7.7409 20.1263 13.9336 0.00558954 0.00731266 -0.00668356
722 2 6.9244 20.7037 13.9336 0.00558954 0.00731266 -0.00668356
723 2 8.5574 20.7037 13.9336 0.00558954 0.00731266 -0.00668356
725 2 10.0208 20.7037 13.9336 -0.00247483 -0.000964794 0.007577
799 1 1.54818 10.8373 17.03 0.00279537 -0.00462869 -0.0105329
800 2 0.731683 11.4146 17.03 0.00279537 -0.00462869 -0.0105329
801 2 2.36468 11.4146 17.03 0.00279537 -0.00462869 -0.0105329
802 1 4.64454 10.8373 17.03 -0.00664567 0.00814217 -0.0045503
803 2 3.82804 11.4146 17.03 -0.00664567 0.00814217 -0.0045503
804 2 5.46104 11.4146 17.03 -0.00664567 0.00814217 -0.0045503
805 1 7.7409 10.8373 17.03 -0.00614288 0.0044834 0.00365997
806 2 6.9244 11.4146 17.03 -0.00614288 0.0044834 0.00365997
807 2 8.5574 11.4146 17.03 -0.00614288 0.0044834 0.00365997
809 2 10.0208 11.4146 17.03 0.0108935 -0.00375163 -0.00768017
820 1 1.54818 13.9336 17.03 -0.00775006 0.00282296 0.00156884
821 2 0.731683 14.511 17.03 -0.00775006 0.00282296 0.00156884
822 2 2.36468 14.511 17.03 -0.00775006 0.00282296 0.00156884
823 1 4.64454 13.9336 17.03 -0.00877509 0.0039099 0.00880428
824 2 3.82804 14.511 17.03 -0.00877509 0.0039099 0.00880428
825 2 5.46104 14.511 17.03 -0.00877509 0.0039099 0.00880428
826 1 7.7409 13.9336 17.03 -0.00747933 0.00660016 0.00975717
827 2 6.9244 14.511 17.03 -0.00747933 0.00660016 0.00975717
828 2 8.5574 14.511 17.03 -0.00747933 0.00660016 0.00975717
830 2 10.0208 14.511 17.03 0.00477675 0.0105502 0.00864627
841 1 1.54818 17.03 17.03 -0.0102949 -0.00606895 0.00714776
842 2 0.731683 17.6073 17.03 -0.0102949 -0.00606895 0.00714776
843 2 2.36468 17.6073 17.03 -0.0102949 -0.00606895 0.00714776
844 1 4.64454 17.03 17.03 0.00605301 0.00845249 -0.00346678
845 2 3.82804 17.6073 17.03 0.00605301 0.00845249 -0.00346678
846 2 5.46104 17.6073 17.03 0.00605301 0.00845249 -0.00346678
847 1 7.7409 17.03 17.03 0.00119407 -0.00264072 -0.00767053
848 2 6.9244 17.6073 17.03 0.00119407 -0.00264072 -0.00767053
849 2 8.5574 17.6073 17.03 0.00119407 -0.00264072 -0.00767053
851 2 10.0208 17.6073 17.03 0.00421908 -0.00314813 0.00362662
862 1 1.54818 20.1263 17.03 0.00120744 0.00908068 0.00187526
863 2 0.731683 20.7037 17.03 0.00120744 0.00908068 0.00187526
864 2 2.36468 20.7037 17.03 0.00120744 0.00908068 0.00187526
865 1 4.64454 20.1263 17.03 0.00809937 -0.00104443 0.00454251
866 2 3.82804 20.7037 17.03 0.00809937 -0.00104443 0.00454251
867 2 5.46104 20.7037 17.03 0.00809937 -0.00104443 0.00454251
868 1 7.7409 20.1263 17.03 0.0097521 0.00516816 -0.0104511
869 2 6.9244 20.7037 17.03 0.0097521 0.00516816 -0.0104511
870 2 8.5574 20.7037 17.03 0.0097521 0.00516816 -0.0104511
872 2 10.0208 20.7037 17.03 -0.00845771 -4.59087e-05 0.00450334
946 1 1.54818 10.8373 20.1263 0.00410466 0.00898204 -0.0100363
947 2 0.731683 11.4146 20.1263 0.00410466 0.00898204 -0.0100363
948 2 2.36468 11.4146 20.1263 0.00410466 0.00898204 -0.0100363
949 1 4.64454 10.8373 20.1263 0.00516692 0.00725853 -0.0089519
950 2 3.82804 11.4146 20.1263 0.00516692 0.00725853 -0.0089519
951 2 5.46104 11.4146 20.1263 0.00516692 0.00725853 -0.0089519
952 1 7.7409 10.8373 20.1263 -0.00476597 0.00162119 -0.00388418
953 2 6.9244 11.4146 20.1263 -0.00476597 0.00162119 -0.00388418
954 2 8.5574 11.4146 20.1263 -0.00476597 0.00162119 -0.00388418
956 2 10.0208 11.4146 20.1263 -0.0088794 0.00742585 -0.00708225
967 1 1.54818 13.9336 20.1263 -0.00430568 0.00220549 0.00705327
968 2 0.731683 14.511 20.1263 -0.00430568 0.00220549 0.00705327
969 2 2.36468 14.511 20.1263 -0.00430568 0.00220549 0.00705327
970 1 4.64454 13.9336 20.1263 -0.00101825 -0.00316188 0.00297144
971 2 3.82804 14.511 20.1263 -0.00101825 -0.00316188 0.00297144
972 2 5.46104 14.511 20.1263 -0.00101825 -0.00316188 0.00297144
973 1 7.7409 13.9336 20.1263 -0.00734539 0.00783734 0.00914862
974 2 6.9244 14.511 20.1263 -0.00734539 0.00783734 0.00914862
975 2 8.5574 14.511 20.1263 -0.00734539 0.00783734 0.00914862
977 2 10.0208 14.511 20.1263 0.00874017 0.00476314 -0.00987755
988 1 1.54818 17.03 20.1263 -0.010599 0.00340435 -0.00240349