LAMMPS Description
3 atoms
2 bonds
1 angles

2 atom types
1 bond types
1 angle types

0.00 21.67 xlo xhi
0.00 21.67 ylo yhi
0.00 21.67 zlo zhi

Masses

1 16.00000
2 1.000000

Atoms

1 1 1 -.8200000000000000 5.418629999999999 5.418629999999999 5.418629999999999
2 1 2 .4100000000000000 4.602133419072274 5.995980269189626 5.418629999999999
3 1 2 .4100000000000000 6.235126580927726 5.995980269189626 5.418629999999999

Velocities

1 NaN NaN NaN
2 NaN NaN NaN
3 NaN NaN NaN

Bonds

1 1 1 2
2 1 1 3

Angles

1 1 2 1 3
