LAMMPS Description
6 atoms
4 bonds
2 angles

2 atom types
1 bond types
1 angle types

0.00 21.67 xlo xhi
0.00 21.67 ylo yhi
0.00 21.67 zlo zhi

Masses

1 16.00000
2 1.000000

Atoms

1 1 1 -.8200000000000000 5.418629999999999 5.418629999999999 5.418629999999999
2 1 2 .4100000000000000 4.602133419072274 5.995980269189626 5.418629999999999
3 1 2 .4100000000000000 6.235126580927726 5.995980269189626 5.418629999999999
4 2 1 -.8200000000000000 16.25589000000000 5.418629999999999 5.418629999999999
5 2 2 .4100000000000000 15.43939341907228 5.995980269189626 5.418629999999999
6 2 2 .4100000000000000 17.07238658092773 5.995980269189626 5.418629999999999

Velocities

1 .8307200275840403E-02 .3899122549124110E-02 -.6298631592216864E-02
2 .8307200275840403E-02 .3899122549124110E-02 -.6298631592216864E-02
3 .8307200275840403E-02 .3899122549124110E-02 -.6298631592216864E-02
4 -.8307200275840403E-02 -.3899122549124110E-02 .6298631592216864E-02
5 -.8307200275840403E-02 -.3899122549124110E-02 .6298631592216864E-02
6 -.8307200275840403E-02 -.3899122549124110E-02 .6298631592216864E-02

Bonds

1 1 1 2
2 1 1 3
3 1 4 5
4 1 4 6

Angles

1 1 2 1 3
2 1 5 4 6
