LAMMPS (29 Aug 2024 - Update 1)
OMP_NUM_THREADS environment is not set. Defaulting to 1 thread. (src/comm.cpp:98)
  using 1 OpenMP thread(s) per MPI task
variable temp index 298.15  # Temperature in Kelvin

units real
atom_style full

# 計算總原子數
variable total_atoms equal count(all)
print "Total atoms loaded: ${total_atoms}"
Total atoms loaded: 0

# 其他模擬設置

special_bonds lj/coul 0.0 0.0 0.5
kspace_style ewald 1.0e-4           # 設定 Ewald 方法，收斂精度設為 1.0e-4
pair_style lj/cut/coul/long 10.65960  # 適用於 Lennard-Jones 和 長程庫倫相互作用

pair_modify mix arithmetic tail no       # 混合規則與尾部修正
bond_style harmonic
angle_style cosine/squared

# 讀取 data 文件
read_data init.data
Reading data file ...
  orthogonal box = (0 0 0) to (21.67 21.67 21.67)
  2 by 2 by 2 MPI processor grid
  reading atoms ...
  1020 atoms
  reading velocities ...
  1020 velocities
  scanning bonds ...
  2 = max bonds/atom
  scanning angles ...
  1 = max angles/atom
  orthogonal box = (0 0 0) to (21.67 21.67 21.67)
  2 by 2 by 2 MPI processor grid
  reading bonds ...
  680 bonds
  reading angles ...
  340 angles
Finding 1-2 1-3 1-4 neighbors ...
  special bond factors lj:    0        0        0.5     
  special bond factors coul:  0        0        0.5     
     2 = max # of 1-2 neighbors
     1 = max # of 1-3 neighbors
     1 = max # of 1-4 neighbors
     2 = max # of special neighbors
  special bonds CPU = 0.001 seconds
  read_data CPU = 0.029 seconds

# 配置力場參數
#pair_coeff 1 1 0.1020 3.188               # Lennard-Jones 參數 for O-O
#pair_coeff 2 2 0.0 1.0                    # Lennard-Jones 參數 for H-H
#pair_coeff 1 2 0.0 1.0                    # Lennard-Jones 參數 for O-H
#bond_coeff 1 450.0 0.9572                 # 鍵長與鍵力常數
#angle_coeff 1 55.0 104.52                 # 鍵角與鍵力常數

pair_coeff 1 1 0.1848 3.165541325   # O-O interactions
pair_coeff 2 2 0.01 0.8018088463        # H-H interactions
#pair_coeff 1 2 0.0429 2.2266   # O-H interactions (Lorentz-Berthelot mixing rules)
bond_coeff 1 500.0 1.0         # OH bond: k_b = 500 kcal/mol/Å², equilibrium length = 1.0 Å
angle_coeff 1 67.5 109.47     # HOH angle: k_θ = 120 kcal/mol/rad², equilibrium angle = 109.47°



# 設置分組
group water type 1 2
1020 atoms in group water

# 鄰近列表設置
neighbor 2.0 bin
neigh_modify every 1 delay 1 check yes

# 初始化速度
#velocity all create ${temp} 12345 mom yes rot yes dist gaussian
timestep 1.0                           # 時間步長（飛秒）

# 溫控（NVT）
fix integrate all nvt temp ${temp} ${temp} 166
fix integrate all nvt temp 298.15 ${temp} 166
fix integrate all nvt temp 298.15 298.15 166

# 輸出設置
thermo_style custom step temp press pxx pyy pzz pxy pxz pyz pe ke etotal
#thermo_style custom step temp press pxx pyy pzz pxy pxz pyz pe ke etotal density atoms
thermo 1000                               # 每 1000 步輸出

dump myDump all custom 1000 dump.atom id type x y z vx vy vz

# 實際模擬運行
run 10000000

CITE-CITE-CITE-CITE-CITE-CITE-CITE-CITE-CITE-CITE-CITE-CITE-CITE

Your simulation uses code contributions which should be cited:

- Type Label Framework: https://doi.org/10.1021/acs.jpcb.3c08419

@Article{Gissinger24,
 author = {Jacob R. Gissinger, Ilia Nikiforov, Yaser Afshar, Brendon Waters, Moon-ki Choi, Daniel S. Karls, Alexander Stukowski, Wonpil Im, Hendrik Heinz, Axel Kohlmeyer, and Ellad B. Tadmor},
 title = {Type Label Framework for Bonded Force Fields in LAMMPS},
 journal = {J. Phys. Chem. B},
 year =    2024,
 volume =  128,
 number =  13,
 pages =   {3282–-3297}
}

CITE-CITE-CITE-CITE-CITE-CITE-CITE-CITE-CITE-CITE-CITE-CITE-CITE

Ewald initialization ...
  using 12-bit tables for long-range coulomb (src/kspace.cpp:342)
  G vector (1/distance) = 0.23880848
  estimated absolute RMS force accuracy = 0.033265155
  estimated relative force accuracy = 0.00010017703
  KSpace vectors: actual max1d max3d = 257 5 665
                  kxmax kymax kzmax  = 5 5 5
Generated 1 of 1 mixed pair_coeff terms from arithmetic mixing rule
Neighbor list info ...
  update: every = 1 steps, delay = 1 steps, check = yes
  max neighbors/atom: 2000, page size: 100000
  master list distance cutoff = 12.6596
  ghost atom cutoff = 12.6596
  binsize = 6.3298, bins = 4 4 4
  1 neighbor lists, perpetual/occasional/extra = 1 0 0
  (1) pair lj/cut/coul/long, perpetual
      attributes: half, newton on
      pair build: half/bin/newton
      stencil: half/bin/3d
      bin: standard
Per MPI rank memory allocation (min/avg/max) = 15.46 | 15.48 | 15.49 Mbytes
   Step          Temp          Press           Pxx            Pyy            Pzz            Pxy            Pxz            Pyz           PotEng         KinEng         TotEng    
         0   298.29208      14763.682      22250.388     -2931.0941      24971.752     -34.720197     -172.9316      -25.12145      -219.26533      906.04591      686.78057    
      1000   281.65997     -199.72563     -536.1873      -525.64606      462.65648      874.60609      207.70208      979.86321     -2941.6532      855.52679     -2086.1264    
      2000   288.83754      2336.1695      2992.4516      2514.8289      1501.2281     -652.37334     -1595.3249     -13.914655     -2944.1588      877.32826     -2066.8305    
      3000   298.51772      4365.5348      4571.8394      3240.7532      5284.0119     -61.651238      1247.973      -227.58911     -2902.4828      906.73128     -1995.7515    
      4000   302.40322     -248.16693     -133.80616     -562.07831     -48.616312      960.16395      1552.8725     -408.94098     -2958.4315      918.53328     -2039.8982    
      5000   292.4239       1964.1823      583.71265      3529.4741      1779.3601     -108.03685      369.44069      651.79507     -3013.1234      888.22165     -2124.9018    
      6000   303.80508      1977.2937      2229.9685      1367.4907      2334.422      -766.69681     -790.56432     -931.75561     -2981.1037      922.79135     -2058.3123    
      7000   298.66541      176.16741     -3198.8238      4117.8851     -390.55906      423.54493     -1586.0686     -188.52512     -2945.0742      907.17989     -2037.8943    
      8000   303.85287      1286.7611      2428.6416      893.28023      538.3613       329.35793      1523.9288      918.89575     -2963.8061      922.93652     -2040.8696    
      9000   300.34195      960.0228       229.43226      1191.5354      1459.1008     -2366.1663      938.62679     -262.64182     -2965.4516      912.2723      -2053.1793    
     10000   308.5377       941.03689      829.64871      329.8022       1663.6597     -1645.8857      504.92179     -1379.6729     -2969.8893      937.16642     -2032.7229    
     11000   309.98137     -971.8726      -3114.5547      892.75044     -693.81354     -1247.077      -46.309942     -1005.4824     -2973.5387      941.55148     -2031.9872    
     12000   290.28022     -1202.9835     -586.97053     -783.34874     -2238.6311     -3224.5314      1179.5026     -185.15373     -3012.5657      881.71033     -2130.8554    
     13000   287.72501      928.27294     -322.45902      3732.8549     -625.57701     -3034.4395     -99.526726      2051.0067     -3000.7749      873.94902     -2126.8258    
     14000   295.16729     -420.08912     -634.58626      466.57449     -1092.2556     -847.25697     -1460.9889     -354.63985     -3008.8456      896.55455     -2112.2911    
     15000   293.09368      858.599        670.45665     -804.65249      2709.9928     -2092.5767      2918.4219     -1297.721      -3015.497       890.25606     -2125.2409    
     16000   300.52418     -142.80416     -3423.362       561.49124      2433.4583      671.37036     -1944.6115     -2324.3671     -3032.3298      912.8258      -2119.504     
     17000   302.21831      574.63789     -363.06074      986.41005      1100.5644      996.10266      37.142296      3244.6831     -2988.9574      917.97164     -2070.9858    
     18000   294.93711      1328.7631      1958.5358     -1416.7746      3444.5282      1761.0691      2373.9794      1284.9396     -3033.7709      895.85538     -2137.9155    
     19000   299.2466       1055.6447      651.02955      1063.9617      1451.9428     -2003.4992     -882.41017      722.34787     -3029.5344      908.94522     -2120.5891    
     20000   306.2028      -1923.8184     -221.3679      -4391.2666     -1158.8209      2128.1182     -1775.2577      727.52111     -3037.3207      930.07431     -2107.2463    
     21000   294.75787      517.89822      1374.6729     -1500.8292      1679.851      -2293.7452     -76.413369     -1416.2741     -3018.817       895.31094     -2123.5061    
     22000   290.12781      1995.8817      3176.7881      2841.3349     -30.477946     -899.67629      2659.7563     -403.9122      -3016.6008      881.24739     -2135.3534    
     23000   292.21923      620.76775     -1520.815       2071.4969      1311.6214      2599.8513      1008.6221     -365.06854     -3008.2282      887.59996     -2120.6283    
     24000   301.20482      619.45407     -377.38735     -502.3029       2738.0525      116.49832     -534.44759      537.27017     -3013.5457      914.89322     -2098.6525    
     25000   293.2421      -781.1906      -1088.1787      734.24867     -1989.6418      793.63124      523.56448     -1017.1697     -3030.553       890.70687     -2139.8462    
     26000   296.87608     -872.31597      167.72242     -737.59552     -2047.0748     -36.218534      183.98536      981.33776     -3029.3198      901.74489     -2127.5749    
     27000   296.88445      693.27324      1594.4587      1577.0667     -1091.7057     -648.1226      -2066.7646     -588.47019     -3040.1373      901.77033     -2138.367     
     28000   300.55002      2055.4785      1808.844       2007.3336      2350.2578     -912.29572      1191.8671      409.83685     -3038.3352      912.9043      -2125.4309    
     29000   306.91975      984.68917      882.71543      1588.6271      482.72498      2456.7171      105.53609     -1114.3572     -3016.6223      932.25199     -2084.3703    
     30000   310.47322      1522.3584     -917.69972      3199.1579      2285.6169     -123.5286      -2416.2582      418.79343     -3040.55        943.04548     -2097.5045    
     31000   304.60949      2279.9598      1337.4788      5253.7119      248.6886       1243.0214     -474.11602      34.459706     -3071.3137      925.23471     -2146.079     
     32000   296.14452      1553.3247      1002.3284      287.06781      3370.5779     -520.0133       2334.7461      996.42696     -3028.8983      899.52281     -2129.3755    
     33000   294.5025       1203.6895      892.41392      651.80745      2066.8471     -1229.5146     -765.32391      1601.7831     -3043.926       894.53528     -2149.3908    
     34000   301.51947     -623.37623      119.27143     -3868.186       1878.7859     -86.342612      597.50975     -665.92934     -2962.3489      915.84893     -2046.5       
     35000   307.29366     -130.17708     -2483.9993      1026.0858      1067.3822     -428.25508     -400.12199     -1548.0968     -2984.9951      933.38774     -2051.6073    
     36000   298.64847      784.75528      1187.4314     -452.26935      1619.1038     -2260.8904     -55.051765      809.91068     -3050.8076      907.12843     -2143.6792    
     37000   289.64377     -2177.1301     -6466.3121     -381.53         316.45192     -2048.9919     -2187.3044     -583.47382     -3052.2207      879.77714     -2172.4436    
     38000   297.03693     -1095.2992     -3479.9849     -1310.7617      1504.8492      1845.8523      71.009832      1105.4975     -3016.0787      902.23346     -2113.8453    
     39000   320.63192      2114.9974      1240.9864      3581.9087      1522.0972     -1638.5295      1899.3394     -1524.309      -3035.1851      973.90197     -2061.2831    
     40000   300.8721       937.39744      2177.3155     -1008.3441      1643.2209      6.8572433      56.179155     -984.5596      -3055.5202      913.8826      -2141.6376    
     41000   288.0825       499.07513      1663.8503      27.222597     -193.84751      1492.1233     -533.83162      372.27621     -3018.1496      875.03489     -2143.1147    
     42000   297.84381      2491.6473      396.67103      5300.8067      1777.4641      1636.9347     -1697.8516     -358.39289     -3017.7047      904.68432     -2113.0204    
     43000   317.75987      949.02776      6274.0716      423.84733     -3850.8357     -1253.2346     -176.7082       544.80181     -3071.9706      965.17827     -2106.7924    
     44000   308.53603     -2607.0504     -4135.263      -2400.106      -1285.782       493.7937       1430.7399      342.71948     -2984.3051      937.16137     -2047.1437    
     45000   287.41153      986.18829      926.73781      1142.4367      889.39033     -1211.4445      2914.8301     -2570.5092     -3032.221       872.99684     -2159.2241    
     46000   290.89966     -1010.0316     -707.09359      778.90969     -3101.9109     -92.748548     -1219.7744      1376.0264     -3059.7145      883.59185     -2176.1227    
     47000   285.01488     -307.09824     -3297.5728      1516.9337      859.34444     -525.88622     -946.49212      534.46223     -3033.5047      865.71714     -2167.7876    
     48000   284.33671      974.22657      1108.3031      2015.1064     -200.72979     -28.54099      -1242.849       2463.9827     -3038.6751      863.65724     -2175.0179    
     49000   299.54998      1316.1201      426.04424      2073.2988      1449.0173     -2848.7952      1550.4771     -717.84309     -3120.7329      909.86671     -2210.8662    
     50000   287.09507     -415.9782      -1418.435      -170.5268       341.02717      1999.9206      20.513542     -149.1767      -3083.1343      872.03562     -2211.0986    
     51000   297.246        24.103325      1234.5453     -1466.9259      304.69055     -1527.967       586.09844      738.92447     -3009.6916      902.86851     -2106.8231    
     52000   303.21443      1495.5496      1002.5546      458.96436      3025.1299     -374.37342      1554.8694      1830.3344     -3004.8936      920.9973      -2083.8963    
     53000   296.70237     -2609.4527     -3451.6575     -3068.1976     -1308.5028      1049.0319     -231.89368      710.96389     -3014.0929      901.21726     -2112.8756    
     54000   301.62294     -496.65431      551.88338     -980.16826     -1061.6781      894.59532     -414.03018     -126.0775      -3001.9538      916.16322     -2085.7906    
     55000   315.17015     -643.64253     -2444.8479     -356.89038      870.81064     -828.98581     -444.181        845.1504      -3051.569       957.31213     -2094.2568    
     56000   302.64083      202.88777      354.64207      1125.8545     -871.83329     -1387.4236     -174.24537     -1047.6473     -3050.6588      919.25501     -2131.4038    
     57000   321.42155      539.66088     -394.25537      1119.5338      893.70417     -1090.4367     -1006.4221      2193.0052     -3002.2275      976.30042     -2025.9271    
     58000   301.77361      849.18615      864.49957      2756.617      -1073.5582     -105.65841     -4809.6148     -2237.0751     -2989.662       916.62089     -2073.0411    
     59000   315.19856      241.9255      -3575.7712      4277.302       24.245722      1674.284      -632.09324     -656.50247     -3039.5543      957.39844     -2082.1559    
     60000   289.58819      366.5056       1429.809      -1779.0094      1448.7171     -404.66033     -502.52754      1961.2005     -3041.311       879.60832     -2161.7026    
     61000   282.72075      316.64756      2973.8         330.31962     -2354.177      -1068.5959     -123.07578      2246.6041     -2994.8141      858.74887     -2136.0652    
     62000   298.36635      446.90202     -562.12071      2460.1106     -557.28386      335.05554     -285.41331     -137.86882     -3039.4312      906.27152     -2133.1597    
     63000   295.48998     -717.26503      57.206262     -1559.6798     -649.32157      1344.244      -1431.2775      4165.411      -3066.9362      897.53469     -2169.4015    
     64000   302.32922     -1718.1586     -1371.7413     -3445.1385     -337.59595     -1460.8353      107.9027      -1721.7861     -3046.7873      918.3085      -2128.4788    
     65000   308.22447      1461.4457      247.7022       838.33167      3298.3033      908.15366     -55.040314      642.96571     -3032.6411      936.21501     -2096.4261    
     66000   298.28313     -522.40938      1858.7797     -1653.7569     -1772.2509      1269.8119     -647.94272      1588.9977     -3014.9616      906.01874     -2108.9429    
     67000   294.20939      3466.8752      1933.6736      5320.7001      3146.252       954.73166     -1978.6288      32.637222     -3014.8898      893.64496     -2121.2448    
     68000   296.17355     -1438.1795     -1327.293      -835.08361     -2152.1619      420.68841      967.67356      1403.8296     -3003.8554      899.61101     -2104.2444    
     69000   306.94265      2031.1802      2548.8708      2229.6226      1315.0474     -445.21299      1118.6287      1326.7299     -3024.977       932.32154     -2092.6555    
     70000   300.52012      2019.5652      3107.5998      1242.2036      1708.8922     -1095.4608      1083.9934     -167.35803     -2968.4257      912.81346     -2055.6123    
     71000   305.37876      1700.5393     -115.04247      1451.4538      3765.2065     -1174.693      -249.27417     -1858.8272     -2998.3907      927.57133     -2070.8194    
     72000   301.65249      209.52629      1061.7336      2615.0815     -3048.2362     -2925.8185     -1677.8796     -1202.1413     -2987.0916      916.25298     -2070.8386    
     73000   301.05026      1439.2531      1781.9479      1629.1062      906.70514      590.70998     -919.54673      2152.8463     -3000.5956      914.42373     -2086.1718    
     74000   296.15316      1507.5373      1347.8892      1766.5604      1408.1624      172.73439     -1335.4457     -3162.9168     -3061.5313      899.54906     -2161.9822    
     75000   276.66167     -1425.3548     -204.2213      -881.71924     -3190.1239     -1391.0572     -194.57972     -644.65696     -3010.6372      840.34472     -2170.2924    
     76000   294.3018      -2557.834      -4893.9438      459.92339     -3239.4816      212.41258      1896.6368      1986.802      -3074.2668      893.92567     -2180.3411    
     77000   306.36591     -844.7028       145.95129     -154.4132      -2525.6465      2279.1295      666.45025      997.63267     -2978.7376      930.56972     -2048.1679    
     78000   307.95756     -399.92573     -1932.3825      290.90199      441.70332     -817.29743      1141.7049     -2044.9636     -2983.7221      935.40429     -2048.3178    
     79000   296.86329      1573.6447      928.12168      1395.703       2397.1096      65.09135      -195.80557      1374.9054     -3018.3252      901.70604     -2116.6191    
     80000   300.70642      1839.8628      3166.6774      2114.6008      238.31015     -320.08259     -1559.9658     -145.20517     -3042.8524      913.37934     -2129.4731    
     81000   303.80913      2192.6303      2190.1172      1974.4444      2413.3293      1216.3863      1784.2172      1492.4221     -3036.7035      922.80366     -2113.8999    
     82000   301.87084      2347.3534      1560.2947      2946.9019      2534.8637     -81.334089      1641.9666     -756.77335     -3046.2111      916.91621     -2129.2949    
     83000   297.16055      837.01828      482.23977      1133.0034      895.8117      -1279.8185     -1844.9686     -1223.273      -3033.9184      902.60896     -2131.3094    
     84000   307.76039      1937.7903      257.02531      1876.2404      3680.1053     -3040.2372      1841.1869      783.98787     -3039.057       934.80538     -2104.2517    
     85000   295.88319      2226.2178      3344.3755      890.79802      2443.4799     -219.53502      1670.2423      967.30141     -3054.7929      898.72905     -2156.0639    
     86000   287.50063      259.76491      2090.825      -2924.6646      1613.1343      1011.4359      947.47998     -1457.8282     -3041.5168      873.26748     -2168.2494    
     87000   289.28013      376.37321     -1385.6486      131.96748      2382.8008      275.69555     -7.6074446     -1016.1052     -3063.5849      878.67262     -2184.9123    
     88000   294.25367      1.0092142      854.38609      867.79855     -1719.157      -2265.6913     -832.29327     -565.36567     -3053.7008      893.77947     -2159.9214    
     89000   292.68183     -130.34883     -45.856553     -301.12993     -44.060025     -1982.9523      830.16446      822.23434     -3035.4556      889.00508     -2146.4505    
     90000   304.95251     -1437.6878     -5768.1297      901.59145      553.47501     -805.83114     -156.96172     -1284.5239     -2994.4085      926.2766      -2068.1319    
     91000   292.19577      369.79527     -1507.0857      1478.5477      1137.9238      1349.2911      1993.5203     -1561.1143     -3102.4095      887.5287      -2214.8807    
     92000   309.01326      4424.9734      3247.5924      5981.5634      4045.7645     -832.53463      54.083572      138.29473     -3007.777       938.61092     -2069.1661    
     93000   286.23089      2169.5853      2262.5394      2996.4396      1249.7769      1654.0813      739.35963     -897.86275     -3062.9357      869.41071     -2193.525     
     94000   303.97168      3870.2286      4562.5317      3572.386       3475.7681     -287.73523     -2221.6268     -1484.671      -2997.7627      923.29741     -2074.4653    
     95000   298.98055      2108.9422      664.10251      5771.2014     -108.47716      2385.7098     -2101.4973     -281.91155     -3040.023       908.1371      -2131.8859    
     96000   286.85741     -2894.2753     -3902.8482     -2564.4015     -2215.5762      579.63558      910.16513     -158.6388      -2979.6204      871.31374     -2108.3066    
     97000   298.6136      -3188.3511     -4752.8502     -2149.7087     -2662.4945     -2554.9056     -1433.5216      622.935       -3024.2702      907.0225      -2117.2477    
     98000   295.65468     -1891.1344     -49.205991     -738.54374     -4885.6535      831.83316     -992.78417      1536.5388     -2971.2374      898.03495     -2073.2025    
     99000   308.23161     -1362.1895     -780.42648     -1512.5571     -1793.5849      479.95095      1060.6756     -1867.4646     -3024.436       936.2367      -2088.1993    
    100000   303.60886      2643.3388      3904.7995      2466.4048      1558.812      -3374.3297     -20.658363     -3198.6576     -3038.4289      922.19536     -2116.2335    
    101000   299.43273      555.33375      1449.9664      117.9859       98.048951      1755.233       1398.3379     -1603.0257     -3035.9587      909.51059     -2126.4481    
    102000   303.09951      2079.1463      375.84405      2317.3925      3544.2024      917.24931      1025.7847     -1336.7626     -3016.6418      920.64823     -2095.9936    
    103000   297.57168     -664.76545     -2722.6703     -1064.622       1792.996       398.93078     -722.53357      1108.4898     -3035.5701      903.85775     -2131.7123    
    104000   297.17154      2593.8129      4589.2061      1918.6232      1273.6094      720.53478     -2083.8749     -2830.5936     -3027.9528      902.64234     -2125.3104    
    105000   292.20083      166.86459      2870.6743     -2555.2785      185.19802      1669.3294     -804.47775     -593.19739     -3001.3267      887.54408     -2113.7826    
    106000   308.7339       1534.3138      1524.3674      812.66963      2265.9045      234.96767      3164.025      -2932.8524     -3053.5679      937.76239     -2115.8055    
    107000   309.8831      -1247.7831     -695.37852     -4086.8694      1038.8987      2701.742      -2071.2143     -2145.3761     -3052.5227      941.25301     -2111.2697    
    108000   305.48733      409.34641      529.8066       3673.5819     -2975.3492      559.79789      1354.7873      824.23157     -3021.3261      927.90109     -2093.425     
    109000   310.41379     -2153.7443     -1944.2291     -5345.7661      828.76215      3192.0423     -1256.9994      714.73058     -3015.8186      942.86495     -2072.9537    
    110000   294.95493      3330.439       937.12976      3260.7635      5793.4239     -346.78735     -1054.6337      369.78291     -2967.2783      895.90952     -2071.3688    
    111000   299.03332      1809.3033      2859.7818     -1147.4599      3715.588       336.51715     -816.31889     -3425.2526     -3002.2624      908.29739     -2093.965     
    112000   294.39755      1391.6726     -411.79846      4697.487      -110.67087     -847.49698     -1114.4749      80.576276     -3080.0455      894.21649     -2185.829     
    113000   301.26484      1079.8329     -640.09534      1307.3204      2572.2737     -2083.0747      449.33131     -1710.1162     -3030.7272      915.07551     -2115.6516    
    114000   301.99172      1880.5218      1348.8364      1745.4238      2547.3051     -652.35385      406.41675     -153.51778     -3057.6088      917.28338     -2140.3254    
    115000   297.85108      949.62312      3178.2764      1074.5876     -1403.9946     -1321.8334      2275.059      -772.06262     -2973.9522      904.7064      -2069.2458    
    116000   296.28273      2936.5877      3585.8795      1514.2546      3709.6289      159.50123      1124.5635     -1504.4518     -3062.5549      899.94262     -2162.6123    
    117000   299.48292     -610.27616      1144.1438     -3047.1117      72.139476      902.06984      28.787335      212.88893     -3069.9785      909.66302     -2160.3155    
    118000   306.33199     -376.28667      1165.3962     -1347.0252     -947.23102      1816.7779     -2033.7111      1125.3718     -2986.9892      930.46671     -2056.5225    
    119000   309.49069      815.71527     -2761.2873      4519.0084      689.42467     -1706.1367      1751.2236      1491.0732     -2998.0025      940.06107     -2057.9414    
    120000   301.9745       2531.4576      2091.2915      9.9789411      5493.1025      649.42541      895.54946     -1012.538      -3008.3208      917.23108     -2091.0897    
    121000   304.78037     -774.41754     -2371.7112     -1288.7469      1337.2055     -1177.5911      1139.7934     -267.48167     -3048.7345      925.75375     -2122.9808    
    122000   291.18775     -1194.1793     -151.50341      679.75559     -4110.7899      604.7888      -1449.2872     -72.003561     -2988.9912      884.4669      -2104.5243    
    123000   316.28707      230.37731      531.78331      932.19952     -772.85089     -142.4248       1009.3309      1116.7635     -3028.2652      960.70471     -2067.5605    
    124000   281.23286     -3633.4319     -2067.3231     -6040.9103     -2792.0624     -3045.8378     -751.77266     -1144.4802     -3011.7985      854.22946     -2157.5691    
    125000   295.4898       455.71978      2723.6088     -2293.622       937.1725      -1124.0924     -2212.0252      1027.9479     -3014.0791      897.53414     -2116.545     
    126000   314.61551     -2476.8716     -1210.0413     -4960.951      -1259.6224      1759.9751      2197.9595      208.09911     -3035.225       955.62743     -2079.5976    
    127000   312.61821     -926.2863       1989.7132     -2157.0789     -2611.4932     -1624.2716      3195.061      -368.45079     -3009.628       949.56074     -2060.0673    
    128000   290.25634     -1295.2213     -777.29231     -731.94165     -2376.4299     -1271.1599     -141.75331     -2345.8778     -3056.6022      881.6378      -2174.9644    
    129000   293.72677      978.49174     -855.2627       579.94034      3210.7976     -584.39651     -353.23787     -615.69347     -3036.0547      892.17904     -2143.8756    
    130000   299.40498     -1236.9341     -466.18832     -3410.5617      165.94761     -872.28941      573.08496      835.81159     -3059.6872      909.4263      -2150.2609    
    131000   297.77901     -2180.568      -1226.9589     -3370.8106     -1943.9346     -263.49555      140.69189     -470.29775     -3077.3602      904.48748     -2172.8727    
    132000   290.67        -1592.9639     -2719.9775     -330.33118     -1728.5831     -784.60567     -1295.2963      250.21587     -3056.4027      882.89427     -2173.5084    
    133000   294.9596      -591.82196     -18.52363      -72.602832     -1684.3394     -2814.2094     -835.60244      445.80091     -3051.5784      895.92368     -2155.6547    
    134000   279.60467     -352.22674     -1870.1741     -2521.1441      3334.638       94.34131      -395.14327      1892.6789     -3027.1106      849.28392     -2177.8267    
    135000   300.19145     -2061.5529     -402.75372     -3365.6896     -2416.2153     -751.08187     -1848.7807      631.26289     -3025.9882      911.81515     -2114.1731    
    136000   291.48023     -1893.8904     -252.49689     -1048.2996     -4380.8747     -1721.4608     -638.4122       160.26431     -3044.1741      885.35529     -2158.8188    
    137000   289.98646      327.11463      2305.8816     -489.19672     -835.34104      2038.4848     -166.1137       472.99469     -3047.6557      880.81804     -2166.8377    
    138000   281.46518      798.0384       1513.7812      1109.4148     -229.08076      658.2603      -663.1862      -1121.4902     -3023.4516      854.93514     -2168.5165    
    139000   296.43461      3294.5473      6513.6593      3387.2538     -17.271176     -82.486773      588.86877     -1369.3928     -3079.2676      900.40396     -2178.8636    
    140000   286.73886      4151.6267      2702.3496      4721.3777      5031.153       1015.5871     -1448.552      -609.9526      -3060.8643      870.95365     -2189.9106    
    141000   317.22255      2376.2598      3728.6949      3573.223      -173.13852     -12.518378     -807.79492      1105.9017     -3025.7467      963.54619     -2062.2005    
    142000   318.73321      1052.6698      850.90839     -662.398        2969.499       78.276691     -1912.3221     -705.04355     -3029.7776      968.13473     -2061.6429    
    143000   295.72522      322.41975     -377.60203      1297.1355      47.725757      2429.4294      942.58822     -1403.1253     -3095.3018      898.24923     -2197.0526    
    144000   286.37058     -1292.3771      312.5919      -1733.5892     -2456.134       2514.3885      626.81714      640.09084     -3068.5368      869.83502     -2198.7017    
    145000   289.94169      710.70431     -784.94857      2585.4505      331.61101      561.06683      2556.7444     -1675.702      -3053.5957      880.68206     -2172.9137    
    146000   305.02023      813.19334      676.58187      2409.6803     -646.68218     -969.18823     -1283.3947      2366.1995     -3073.4828      926.48231     -2147.0005    
    147000   294.59754      401.85648      421.14532      327.78101      456.64312      113.46426     -867.70504      519.59557     -3057.8464      894.82395     -2163.0225    
    148000   307.42858     -147.9037      -582.15305     -1640.281       1778.7229      1030.6085     -880.28688      206.59431     -3080.1878      933.79755     -2146.3902    
    149000   287.7858       2400.3616      1327.7399      2930.6711      2942.6739      711.94691     -1071.068       2340.1057     -3008.0759      874.13366     -2133.9422    
    150000   287.36418     -1977.6244     -2416.6285     -621.13881     -2895.1058      275.84353      645.37661      1595.2642     -3012.633       872.85302     -2139.78      
    151000   284.10942     -458.19412     -1128.4159     -1530.2969      1284.1305     -1280.7912     -3483.6951      718.00631     -3030.2699      862.96687     -2167.303     
    152000   283.06782     -203.12528      3663.8937     -645.32801     -3627.9415      2024.5755     -1880.8378     -1760.3521     -3001.0036      859.80305     -2141.2006    
    153000   299.81417      849.72065      2064.0564      1701.0086     -1215.903      -876.1658       3335.0834     -294.4561      -3023.8717      910.66917     -2113.2025    
    154000   312.56328     -757.47181      27.448504     -978.33189     -1321.532       553.9564      -1978.0101     -950.95723     -3016.4059      949.3939      -2067.012     
    155000   316.09042      778.29735      3095.7539     -51.18182      -709.68001      1552.8508     -1178.0909     -197.16802     -3027.1745      960.10742     -2067.0671    
    156000   295.53236      1226.2823     -196.40153      3430.5709      444.67755     -2101.3194      1091.8625     -1020.9518     -3025.2169      897.66342     -2127.5535    
    157000   311.40733     -627.90537      188.53564     -1500.7668     -571.48497     -126.11863      2630.0853     -20.07976      -3056.0514      945.88278     -2110.1686    
    158000   298.94183      531.67055      489.84482      544.2447       560.92212      1072.5245      58.098796     -380.73013     -3034.4023      908.01951     -2126.3828    
    159000   297.64485     -736.07064      973.20599     -213.23183     -2968.1861      774.9047       2292.7224     -2105.273      -3027.9015      904.08        -2123.8215    
    160000   281.54783      1281.9007      1901.5992      2191.0815     -246.9785      -520.82543     -217.05503     -2166.1768     -3065.4515      855.18616     -2210.2653    
    161000   319.40906      1751.8967      2381.6342      383.89827      2490.1576      535.60937     -2361.2023     -734.49964     -2991.2909      970.18758     -2021.1034    
    162000   302.65838     -754.52292      894.24718     -4222.9186      1065.1027      38.78758       516.83249      2798.8582     -2996.222       919.30831     -2076.9137    
    163000   288.92402     -1168.6569     -1426.5661     -1883.8814     -195.52312      1934.6091     -1846.9056      1682.1763     -3027.8034      877.59096     -2150.2124    
    164000   298.58389      2866.1591     -278.81236      3287.3819      5589.9077     -357.69242      197.26684      870.54869     -3039.3539      906.93228     -2132.4216    
    165000   299.0235       1805.0439      6113.126      -1140.5832      442.58875     -1984.8731     -1262.7176     -2868.5909     -2995.4048      908.26757     -2087.1372    
    166000   299.77143      1857.4077      1528.9639      127.80986      3915.4493      2049.1294      2148.9094     -2134.2475     -3099.2633      910.53937     -2188.7239    
    167000   292.2663       1252.3957      2320.0844      1541.4253     -104.32273     -1663.3888      356.66003      1524.2743     -3053.9261      887.74293     -2166.1831    
    168000   297.23898      1219.934       2088.4615      680.15115      891.18933      1608.4753     -259.09971     -1770.0268     -3051.389       902.84719     -2148.5419    
    169000   297.51552     -220.30618     -1375.073       1307.0737     -592.91923     -1477.2821     -1239.2106     -104.50726     -3004.0606      903.68717     -2100.3735    
    170000   309.70565      1069.7753      29.748098      2160.285       1019.2927     -525.14428      604.65383      287.90952     -3021.783       940.71403     -2081.069     
    171000   291.73839     -2875.5414     -3274.5805     -4394.6522     -957.39161     -926.07365     -1370.1704      1430.8338     -2977.0187      886.13945     -2090.8792    
    172000   298.18831     -1671.225      -3537.4429     -2548.2338      1072.0018      363.99962     -923.6165      -2340.1228     -2996.0719      905.73073     -2090.3411    
    173000   296.0206       656.89045     -2195.4589      3003.1517      1162.9785      527.86479      722.27877     -3081.6166     -3009.8529      899.14642     -2110.7065    
    174000   294.94891     -475.92567     -1299.8146     -3891.3597      3763.3973     -1063.6878     -410.66598      1446.0994     -3034.1519      895.89123     -2138.2607    
    175000   301.14654      1888.0255      1421.4169      3319.5575      923.10198      1633.8423      337.5417       898.71019     -3047.0585      914.71618     -2132.3423    
    176000   303.42253      4926.7806      4794.0276      4276.4392      5709.8752     -926.53168     -813.44641      1027.3008     -3024.009       921.62939     -2102.3796    
    177000   304.48307      1915.3499      3057.1445      1201.8683      1487.0369      2990.4732     -1437.41       -1895.9684     -3043.8337      924.8507      -2118.983     
    178000   293.79244      199.64707      1596.2576     -1171.4726      174.1562      -447.78481     -2237.3107     -156.71923     -3036.7156      892.37851     -2144.3371    
    179000   288.67939     -1030.6824     -1700.8106     -1018.6794     -372.55729     -855.76717     -1835.3283     -709.29021     -2984.6395      876.84791     -2107.7916    
    180000   297.81876      1314.9439      766.1506       5908.5234     -2729.8424      1780.8288      496.14924     -167.72065     -2981.0546      904.60823     -2076.4464    
    181000   297.45883     -673.72898     -2401.4853     -552.74582      933.0442      -798.47362     -957.30677     -343.87604     -3018.2601      903.51496     -2114.7451    
    182000   312.21454      1370.6452     -621.60749      2407.8145      2325.7287      22.38558       2279.0971      60.518413     -3032.1318      948.33463     -2083.7972    
    183000   305.07715      1146.2173      1250.3227      2020.3058      168.02356      695.04933     -787.57204     -1181.4979     -3031.8514      926.65521     -2105.1962    
    184000   306.44876      2916.852      -1334.2808      6084.9114      3999.9255     -1348.0481     -2116.8148     -639.24351     -3033.6471      930.8214      -2102.8257    
    185000   311.2486       2661.0128      2328.7826      6123.242      -468.98608     -1241.1342     -2120.5537      1992.4807     -3006.472       945.40063     -2061.0713    
    186000   293.27183      1177.6403      3290.56        731.06261     -488.70167      371.67323      2032.2337     -2891.9581     -3003.5028      890.79718     -2112.7057    
    187000   303.45848     -41.280177      712.6249       1.0472454     -837.51267     -2154.5491      2002.4517      293.39359     -3023.7324      921.73859     -2101.9939    
    188000   304.80244     -2738.0398     -3929.3391     -2940.421      -1344.3591     -247.40295      812.80386     -911.66776     -3013.4308      925.8208      -2087.61      
    189000   296.36549     -2430.0839     -3243.3928     -362.81042     -3684.0485     -1460.184       1329.6854     -958.36828     -3028.6567      900.194       -2128.4627    
    190000   311.63323     -480.44708     -1114.3416     -2056.3889      1729.3893      188.73575     -1448.4619     -392.60607     -3036.8471      946.56894     -2090.2782    
    191000   275.9609       698.25926     -668.80158      1135.7103      1627.8691      2359.075       115.3469       1283.9515     -3096.3006      838.21616     -2258.0845    
    192000   291.15361      1393.0986      2147.0455      3249.559      -1217.3088      177.63872     -1290.6538     -1716.5805     -3025.6263      884.3632      -2141.2631    
    193000   286.51211      258.21161      28.911788      1808.0433     -1062.3203     -1486.1873      725.68716      2117.2148     -3030.5555      870.26489     -2160.2906    
    194000   292.49365     -525.88073      750.01117     -950.13036     -1377.523       348.02645     -160.05451     -1670.358      -3067.1876      888.43349     -2178.7541    
    195000   295.20201     -450.44804     -2005.5971     -516.7091       1170.9621      558.99347      92.467791      2855.1184     -3041.3624      896.65999     -2144.7025    
    196000   297.73321     -1026.5427     -766.03182     -2431.5195      117.92305      1928.8242      89.506841      502.13165     -3063.3939      904.34839     -2159.0455    
    197000   311.15796      2991.202       3684.4367      2701.5777      2587.5917     -148.95909     -2063.2373     -761.81728     -3005.1803      945.12533     -2060.0549    
    198000   292.65343     -184.17546      516.71688     -714.74414     -354.49913      2246.0383      166.08646      1020.0059     -3067.1545      888.91881     -2178.2357    
    199000   281.02533      1357.6565      1476.4946      1359.1704      1237.3046     -1907.6064     -353.96137      272.74563     -3085.235       853.59912     -2231.6359    
    200000   308.78598     -951.76748      68.854488      2366.287      -5290.444       3674.9456     -870.33852     -287.94202     -3023.2404      937.92057     -2085.3198    
    201000   300.04675      1181.0014      1941.2116      129.69343      1472.099      -2041.4971      626.83206     -1962.476      -3012.7566      911.37563     -2101.381     
    202000   313.47366      2114.7577      661.23862      2298.5915      3384.4429      1234.7868     -1804.66        325.23019     -3027.1642      952.15913     -2075.005     
    203000   294.33927      438.76021      908.91227      1085.374      -678.00567     -2090.504       490.26686     -1239.6849     -3009.1184      894.03948     -2115.0789    
    204000   295.68919      565.49074      620.27452     -781.70169      1857.8994      9.9993539      1292.8986      2790.5376     -3055.7876      898.13978     -2157.6478    
    205000   299.09948     -241.23103     -932.6189       751.85158     -542.92576      1326.1809      1810.6552     -752.61008     -3062.4619      908.49836     -2153.9636    
    206000   300.43655      1692.1379      788.56562      1665.6429      2622.2052     -1209.4502     -1319.6951     -529.30812     -3028.4234      912.55963     -2115.8638    
    207000   317.40691     -396.21317     -682.69141      515.21335     -1021.1614      950.59786      968.45892      1940.3809     -2982.1349      964.10616     -2018.0287    
    208000   304.52747      414.14475      517.70601      244.16697      480.56128      2993.584      -1307.0077     -569.91749     -3044.5984      924.98557     -2119.6129    
    209000   306.06109      1386.6671      2365.1282      476.61743      1318.2556      15.806935     -898.06843     -1079.6798     -3036.147       929.64387     -2106.5032    
    210000   292.00088      1062.167       173.79754      2144.463       868.24054      142.18959      1112.9447     -968.48665     -3046.7112      886.93675     -2159.7745    
    211000   300.64672      1094.7914      704.73449      3970.6928     -1391.0532     -385.67949     -2531.6305      1049.6575     -3044.1844      913.198       -2130.9864    
    212000   287.95417      647.38277      2247.8494      117.87434     -423.57545      1538.5203      2656.8215     -1462.8242     -3007.8615      874.64509     -2133.2164    
    213000   323.92971      1467.4038      3352.596       1497.4144     -447.79884     -2261.4173     -356.90746      208.00776     -3081.8452      983.91883     -2097.9264    
    214000   300.86314      247.09987      5522.4105     -641.34633     -4139.7646     -1993.3263      1400.3303      2682.0995     -3043.803       913.85538     -2129.9476    
    215000   295.47688     -29.413536      1837.8338      128.11005     -2054.1844      497.71829     -848.84185     -1247.7799     -3050.2665      897.49491     -2152.7716    
    216000   287.47854      315.97268      1923.307       1704.6022     -2679.9912      459.81706      573.73283      1240.3164     -3010.549       873.20037     -2137.3486    
    217000   292.6151       426.61294      308.94393     -493.48974      1464.3846     -783.35409      572.00747      2558.5772     -3049.8536      888.80241     -2161.0512    
    218000   294.03722      926.58211      3817.2664      984.24589     -2021.7659      163.65934     -262.66882      994.62806     -3087.0113      893.122       -2193.8893    
    219000   288.68296      1603.1264      974.35815      2703.4721      1131.5489     -1928.8317      354.44958     -90.790564     -3027.6519      876.85873     -2150.7931    
    220000   290.5301       1609.9884      4343.8848      1067.5635     -581.48314      1568.3829     -242.49078     -1356.1688     -2995.9929      882.46932     -2113.5236    
    221000   313.29683      3135.9596      2437.6054      1654.6407      5315.6327      203.31213      2646.7373     -732.59824     -3057.9555      951.62204     -2106.3334    
    222000   299.65831      2607.5522      3727.658       253.8646       3841.1339     -756.88401     -1563.6554     -1647.52       -3002.9101      910.19576     -2092.7143    
    223000   289.86721      3499.339       3811.2975      2267.8091      4418.9105     -2160.5823     -557.50462      266.31137     -3075.2511      880.45583     -2194.7952    
    224000   289.26914      616.05478      2188.161       1550.2761     -1890.2728      662.72879      1125.3291     -306.90752     -3063.7907      878.63922     -2185.1515    
    225000   279.49045      707.45937      1861.8378      1335.822      -1075.2817     -856.67626      1718.596      -1060.0577     -3041.4984      848.93698     -2192.5614    
    226000   296.18776      2056.807       1375.9141      4261.9375      532.56939      635.94652      816.57137     -535.03608     -3057.2486      899.65416     -2157.5944    
    227000   296.72444      1601.4663     -265.14586      2688.1905      2381.3542     -1712.8877      426.24489      3790.2406     -3046.7433      901.2843      -2145.459     
    228000   282.52528      881.89438     -1150.9037      1204.9972      2591.5897     -298.79655     -2151.0135     -1031.7334     -3025.6773      858.15513     -2167.5221    
    229000   283.95583     -596.07172      465.56014     -1231.4463     -1022.329       266.28964     -303.94826      300.47889     -3063.5255      862.50034     -2201.0252    
    230000   288.84534     -180.76918     -3474.2177      2787.9144      143.99581      1729.3737     -222.21422      1228.7361     -3101.3135      877.35197     -2223.9615    
    231000   315.8059       1226.8613     -1310.8047      1806.1099      3185.2787      1836.5994     -1029.5826      2825.0629     -2996.6373      959.24318     -2037.3942    
    232000   304.54417      815.63249     -495.90596      2252.755       690.04844      138.38907      2062.2236      1016.5118     -3022.7047      925.03629     -2097.6684    
    233000   295.58945      2753.4173      3384.2015      3702.1656      1173.8848     -953.05141      904.09049      3135.9405     -2986.5138      897.83682     -2088.677     
    234000   307.1794      -2505.5435     -3358.2811     -3079.2621     -1079.0873     -1982.4288      103.59953     -976.08641     -3010.0745      933.04068     -2077.0338    
    235000   289.95072     -238.21854      2781.9492     -1948.8045     -1547.8003     -414.07459     -813.70488      535.76229     -3103.6367      880.70949     -2222.9272    
    236000   297.92128     -630.67615      417.28849     -2776.0499      466.733        355.97275     -1297.7645      283.94469     -3078.137       904.91962     -2173.2174    
    237000   317.6794      -447.97975      769.24896     -1716.6873     -396.50094     -692.24973      2377.2212     -500.69642     -2994.5843      964.93386     -2029.6504    
    238000   302.7592      -2231.2321     -4934.0074      397.5689      -2157.2579      1090.6878      1354.2802     -1807.5303     -2996.7476      919.61455     -2077.133     
    239000   296.44524     -1958.4337     -154.01268     -1976.3107     -3744.9776     -156.06144     -1653.0703     -739.13763     -3042.38        900.43625     -2141.9437    
    240000   304.58875     -1060.9122     -152.12935     -1588.4659     -1442.1415     -174.71399      522.59264      2044.6557     -3089.859       925.1717      -2164.6873    
    241000   292.16314     -4188.0119     -4613.1813     -4958.562      -2992.2923     -700.98951     -1736.944       3556.4581     -3014.4126      887.4296      -2126.983     
    242000   305.12293     -1949.0405     -2484.5964     -1481.7003     -1880.8247     -414.31422      2508.2622     -1271.8147     -3076.7893      926.79425     -2149.9951    
    243000   294.28833      1764.5814      4022.8266      635.81104      635.10664      1088.72       -1943.1439      107.02229     -3043.2488      893.88476     -2149.3641    
    244000   294.81357     -2376.8052     -1162.3945     -3666.7531     -2301.2681      978.29455     -2337.8152      2988.2879     -3057.2545      895.48014     -2161.7744    
    245000   298.94852     -753.10273     -1101.1853      797.591       -1955.7139     -730.05417      2466.0864     -1428.6607     -3018.7748      908.03983     -2110.7349    
    246000   303.99        -595.48827     -1235.5491     -1463.2899      912.37423      420.90369     -1181.9152     -611.97504     -3066.8239      923.35303     -2143.4708    
    247000   297.00542      933.87181      2289.9681      2067.0562     -1555.4089     -1466.7662      1481.1076      3132.6143     -3079.7019      902.13775     -2177.5642    
    248000   310.14566      1877.5444      3132.9859      594.74018      1904.9072      3750.6504     -379.38822      1977.3614     -3018.8898      942.05053     -2076.8393    
    249000   298.67511     -3146.0874     -3395.6992     -4030.7952     -2011.7678     -7.6575852     -1202.0317      809.4673      -3010.3159      907.20936     -2103.1065    
    250000   301.64141      1039.4726     -828.52389      1845.6028      2101.3388     -263.44604      1238.221       1587.1588     -3016.838       916.21934     -2100.6186    
    251000   284.52143      2774.2308      3775.6848      815.4275       3731.5801      456.09764      781.80247      288.57278     -3060.5169      864.21832     -2196.2986    
    252000   305.68446     -886.16533     -1445.8774     -614.80505     -597.81352      564.1812      -890.66438     -1177.9265     -3039.3084      928.49988     -2110.8086    
    253000   299.32268     -893.37721     -2749.85       -1175.1833      1244.9017     -715.59377      258.25838      264.16497     -3033.9809      909.1763      -2124.8046    
    254000   297.76224     -1010.3636     -2703.3647      1528.1056     -1855.8317     -1287.4978      403.24606      16.174101     -3021.4735      904.43657     -2117.037     
    255000   294.29052     -726.52371     -2405.8171     -1658.2956      1884.5415      999.84578      878.07626     -51.702357     -3035.6563      893.8914      -2141.7649    
    256000   287.31257     -557.19703     -1253.506       1937.9151     -2356.0002      323.31304     -65.758683     -1213.2988     -3003.304       872.69625     -2130.6077    
    257000   289.81356     -720.93707     -2328.1554      747.0562      -581.71202      360.05669     -1585.0344      1845.9584     -3036.018       880.29287     -2155.7251    
    258000   299.76276      1201.611      -1444.8164      3436.4635      1613.186       2774.6131     -919.4054       682.39982     -3060.1521      910.51302     -2149.639     
    259000   305.44427      3163.8087     -1161.4411      7255.3434      3397.5238     -339.5344       239.6874       23.875352     -3011.1406      927.77031     -2083.3703    
    260000   298.27355      1453.1106      1606.7473      916.52624      1836.0581      2089.2266      1978.3526      671.97297     -2992.6858      905.98964     -2086.6962    
    261000   305.33915      1152.7709     -582.36655      2758.2929      1282.3863     -542.39938      2937.7948      597.40667     -3017.3993      927.45102     -2089.9483    
    262000   302.76262      27.517456      2231.9616     -1731.369      -418.04018     -1559.1989      1608.0771      1215.1789     -3018.6898      919.62495     -2099.0649    
    263000   296.603        2011.8265      4332.3926      1503.9462      199.14059      43.39773      -2905.9527     -954.16267     -3027.9574      900.91542     -2127.042     
    264000   295.84951      1071.3548     -134.57075      1639.7794      1708.8558     -182.69967      158.54119     -1144.0564     -3043.5528      898.62674     -2144.9261    
    265000   294.25015     -480.30188      1989.4755     -2292.8866     -1137.4946     -1326.6577      2056.5574      1462.4367     -3035.9585      893.76879     -2142.1897    
    266000   300.63062      362.81917      1547.7397      1075.0137     -1534.2959      47.111694      2419.7961     -2036.9393     -3018.4708      913.14911     -2105.3217    
    267000   303.02414      2102.9588      3568.0502     -462.14216      3202.9682      247.80797      917.36831      1337.6485     -3046.0926      920.4193      -2125.6733    
    268000   284.30062      2826.9387      4756.0705      5101.2224     -1376.4766     -622.55477      1524.4073     -514.51584     -3048.3243      863.54763     -2184.7767    
    269000   289.07555     -4104.5276     -1358.99       -5674.2435     -5280.3493      2779.1784      879.21752      2273.1168     -3046.5089      878.05121     -2168.4576    
    270000   296.90338     -117.82583     -346.79225     -1909.2204      1902.5351      2396.8919      863.24058     -802.7298      -3021.8222      901.82782     -2119.9944    
    271000   308.38174      533.4313       2211.0389     -1103.7066      492.96163     -1354.3725     -865.64487      1513.153      -3035.2489      936.6927      -2098.5562    
    272000   297.04453     -1021.459       2683.2183     -3512.7572     -2234.838      -144.24243      2572.1655     -970.18415     -3062.9383      902.25656     -2160.6818    
    273000   291.76329     -1737.7592     -6537.6448     -124.99632      1449.3633     -1475.5287     -2316.5111      485.08362     -3047.6931      886.21508     -2161.478     
    274000   291.47604      72.703672      249.65146      1204.9503     -1236.4907      683.03936     -670.24244     -228.9473      -3061.9251      885.34256     -2176.5825    
    275000   288.39171      252.47881      1640.8174     -1449.9956      566.61464     -577.12291     -594.45428     -2246.6799     -3064.4106      875.97409     -2188.4365    
    276000   288.80762     -1283.0213     -1387.4168     -785.02855     -1676.6185     -1378.7745      592.1277      -245.62051     -3099.83        877.2374      -2222.5926    
    277000   312.98098      915.893        2282.7386     -1212.0463      1676.9866     -2252.4377      1737.4333     -493.94497     -3042.7767      950.66264     -2092.114     
    278000   293.44505     -1238.6262     -1832.7833     -1335.683      -547.41228     -965.3213      -997.1283       289.74031     -2983.6368      891.32334     -2092.3134    
    279000   302.95518      1816.7062      1701.5205      1217.7061      2530.8921     -1490.9056      394.01501      1175.6251     -3035.3412      920.20984     -2115.1313    
    280000   307.39184      296.33204      92.281611      2933.3764     -2136.6619      411.45727      1250.7237     -537.72841     -3039.1653      933.68594     -2105.4794    
    281000   285.28363      940.794        2520.3732     -1004.7612      1306.77        323.24312     -3029.2478     -831.79354     -3063.0357      866.53346     -2196.5023    
    282000   279.34043      1936.2023      2985.558       380.90318      2442.1457      441.8368       519.75073     -36.441685     -3082.0421      848.4813      -2233.5608    
    283000   307.76326      2783.7434      1402.9915      5332.1621      1616.0767     -439.52959      2842.3674      170.44077     -3019.2528      934.81411     -2084.4387    
    284000   297.42511     -641.09255     -1159.1613     -1179.7172      415.60088      1844.603      -1276.2412      2076.7936     -2994.7486      903.41254     -2091.3361    
    285000   283.21041     -310.35421     -1312.6016     -459.24781      840.7868      -1244.4836     -608.66311      761.35728     -3025.0864      860.23617     -2164.8502    
    286000   289.24523     -264.80563     -2663.7892      307.71909      1561.6532      1410.5311     -876.09536     -573.66572     -3062.3404      878.56661     -2183.7738    
    287000   283.06732     -53.46952       310.27157     -765.93275      295.25263     -576.64023     -2385.0862     -511.8798      -3020.8908      859.80153     -2161.0892    
    288000   293.80252     -2136.7808     -4202.8797      185.10385     -2392.5667     -472.18866      321.18256      22.32293      -3041.9812      892.40913     -2149.5721    
    289000   295.48426     -520.9124      -3015.515       1621.3496     -168.57182      2032.8782      1115.9706      769.88088     -3001.2502      897.51732     -2103.7329    
    290000   298.95604      694.24433      654.81865     -1016.7795      2444.6938     -204.09212      1151.9251     -1834.5391     -3023.7869      908.06265     -2115.7242    
    291000   304.13775     -1277.3446      415.72902      903.24285     -5151.0058      38.918934     -1497.3528      1296.0955     -3028.2123      923.80182     -2104.4104    
    292000   294.19973      1725.102       2968.6433      2401.8359     -195.17326     -688.1757       212.54221      176.35271     -3038.9222      893.61564     -2145.3066    
    293000   307.34537      822.84175      1630.097      -140.5962       979.0244      -159.40411     -635.02126      1757.5139     -3063.3528      933.54478     -2129.808     
    294000   303.02001     -715.03162     -2355.7799     -572.154        782.83901     -2684.1731      1528.6186      2344.5552     -3070.9639      920.40676     -2150.5571    
    295000   300.24374     -959.43412     -654.12566      264.72868     -2488.9054      1887.1891      845.15951     -1223.3149     -3007.6309      911.97397     -2095.6569    
    296000   291.8654      -1229.9144     -284.95441     -930.09138     -2474.6974     -3069.2328     -1447.4658     -1405.4047     -3049.109       886.52523     -2162.5838    
    297000   291.38813      1934.5281     -786.25222      3032.2172      3557.6194      3177.1891     -1167.2613     -300.82142     -3017.0452      885.07555     -2131.9696    
    298000   298.11212     -291.6451      -202.96839      278.75183     -950.71873     -221.96645     -1542.5126      1084.8065     -3006.8739      905.4993      -2101.3746    
    299000   299.13573     -346.10831     -22.89029      -119.40133     -896.03332      715.82763     -1030.1236      1502.301      -3033.5886      908.60846     -2124.9801    
    300000   302.8362       1778.6462      3221.9075      713.71845      1400.3125      1349.7385     -539.50115      843.4495      -3026.7922      919.84844     -2106.9438    
    301000   294.12099      1261.1372      4193.0659      970.13995     -1379.7944     -1976.3849      1819.6323      1683.3084     -3021.4094      893.37647     -2128.0329    
    302000   311.71674      2544.7287      5780.1983     -2517.0764      4371.0641     -1794.84        600.14848     -243.28903     -3059.8082      946.82258     -2112.9856    
    303000   315.49492      2254.835       2136.3769      2111.3307      2516.7973     -330.51399     -719.25659      1702.1227     -3064.0467      958.29862     -2105.7481    
    304000   314.11578      2166.857       3179.6109      3204.1561      116.8041      -263.89674      1189.2912      3503.1806     -3039.3017      954.10955     -2085.1922    
    305000   295.75551      1624.3186      983.24042      2801.3299      1088.3856      236.76185      847.56366      161.23102     -2980.2569      898.34122     -2081.9157    
    306000   302.0001       1646.5808      3618.8539      3545.7386     -2224.8502      472.31739      182.58825      123.31556     -3020.9855      917.30884     -2103.6766    
    307000   293.08346      1363.2066      1819.4272     -216.74863      2486.9411     -510.31711      421.88752      474.40823     -2973.4125      890.22502     -2083.1875    
    308000   307.385        2733.6453      2363.1656      3485.6104      2352.1598      1789.8537      860.2719      -378.5272      -3041.8501      933.66518     -2108.1849    
    309000   300.01714      724.55729      3903.8506     -1715.8445     -14.334169      765.9069       912.89723     -158.95464     -3021.6016      911.2857      -2110.3159    
    310000   295.03846      1381.7686      2766.9777      812.27658      566.05155     -3082.1173     -310.44131      1424.9221     -3031.4789      896.16322     -2135.3157    
    311000   295.31931      822.38102      1730.9023      1589.374      -853.13322      37.610443     -275.26362      896.13409     -3024.024       897.0163      -2127.0077    
    312000   304.87757     -620.3448      -1304.0713      974.92387     -1531.8869      1483.4728      1837.0492     -176.28129     -3058.7452      926.04898     -2132.6962    
    313000   287.59898     -396.68827     -1604.2033      1449.0587     -1034.9203     -1020.6705     -536.30631      1422.1881     -3030.4054      873.56622     -2156.8391    
    314000   287.87254     -628.42744     -3057.2689      2707.6848     -1535.6983     -446.15322     -1932.7524      1576.9375     -3008.3744      874.39714     -2133.9773    
    315000   304.34864     -1521.4292     -1611.2571     -3014.5651      61.534499      1836.2509     -2363.3458     -1895.7999     -3045.3071      924.44238     -2120.8648    
    316000   294.2832      -490.4262      -636.44672      1486.9894     -2321.8213     -904.26569      450.3708      -1451.7008     -3043.4829      893.86915     -2149.6137    
    317000   297.07906     -777.5026       820.83076     -914.66263     -2238.6759      1272.7576     -121.89151     -3459.0985     -3068.7133      902.36144     -2166.3518    
    318000   289.68208     -1785.3529     -1963.0284     -1326.9324     -2066.098       348.87581      560.77852      3.8570892     -3076.5682      879.89352     -2196.6747    
    319000   297.35427      1067.1623     -796.73658      2846.0678      1152.1556      50.83322      -304.63289     -1027.8448     -3068.6463      903.19738     -2165.4489    
    320000   296.92661     -524.23869     -2363.5908     -583.91488      1374.7896     -1071.5438      1216.1297      1128.9252     -3060.4417      901.89837     -2158.5433    
    321000   295.61265      722.7996       2384.2025      22.457986     -238.26171      714.18392     -1108.9652      341.97494     -3038.6211      897.90729     -2140.7138    
    322000   313.71577      860.25505     -220.43356      2328.3642      472.83448     -2983.3622     -1901.2918     -199.22193     -3094.0757      952.89454     -2141.1812    
    323000   297.46018     -1153.4906     -937.71465     -2351.8568     -170.90022      1196.2603     -375.94537      914.13566     -3054.3706      903.51908     -2150.8515    
    324000   298.41175      2495.7936      4998.2995     -309.4927       2798.5741      554.69967      864.88838     -1551.9656     -3034.4594      906.40941     -2128.05      
    325000   290.96587     -1525.4628     -742.35169     -787.1591      -3046.8777     -1196.7897      1674.5876      978.42386     -3046.1029      883.79294     -2162.3099    
    326000   303.33496      1319.847      -156.46624      3817.891       298.11619      119.94198      1018.2767      1958.7895     -3045.3646      921.3634      -2124.0012    
    327000   299.83277      2148.5948      4687.8728      905.13063      852.78102     -1670.7614      536.52827     -143.34691     -3039.9401      910.72567     -2129.2144    
    328000   300.91963     -344.99742     -1692.4288      648.51451      8.9220401      1564.4642     -4450.9808      2925.9857     -3056.2988      914.02695     -2142.2718    
    329000   289.34683      2356.5369      5042.1781      1231.3314      796.10137      240.54551      1070.1767     -1661.7318     -3047.8966      878.8752      -2169.0214    
    330000   287.8159      -1184.8712     -439.95403     -654.28412     -2460.3753      25.446708      537.61047      2929.8412     -3032.7106      874.22509     -2158.4855    
    331000   295.40419     -37.659111      1835.1309     -1000.2365     -947.87172      302.36958      544.45217      1532.8498     -3069.4096      897.27412     -2172.1355    
    332000   298.85595     -64.925732      267.57092      710.91117     -1173.2593      2091.6126     -1894.8258     -495.49267     -3009.3542      907.75863     -2101.5956    
    333000   289.91377      156.49422     -315.74528      369.56528      415.66266      3304.834       841.08215     -1015.731      -3014.7548      880.59726     -2134.1575    
    334000   305.41341      803.091       -782.07565      1956.2557      1235.093      -479.85528     -629.27153      983.74552     -3075.5401      927.67658     -2147.8635    
    335000   290.1401       1482.9746      1011.7277      3792.4969     -355.30082     -1332.7968     -360.05875     -1009.898      -2993.9737      881.28474     -2112.689     
    336000   292.54275     -458.90017      3163.6932     -2786.604      -1753.7898     -2826.3533      1255.121       763.87568     -3000.9507      888.58264     -2112.368     
    337000   297.66272      239.80553      100.38588      941.29434     -322.26363      931.71786     -720.15907      1037.058      -3013.4278      904.13427     -2109.2935    
    338000   296.00104     -1284.163      -2081.5272     -390.81712     -1380.1447     -3127.4493      339.35902      59.95543      -3009.899       899.087       -2110.812     
    339000   301.59011     -983.98845     -856.54444     -1626.342      -469.07886      221.76173      1474.8289     -1052.8378     -3004.4248      916.0635      -2088.3613    
    340000   313.8221       1590.7197      4948.497       1999.334      -2175.6718      808.3865       4.6787258      981.08621     -3049.3378      953.21752     -2096.1203    
    341000   300.05467      363.5955       2811.8524     -755.65472     -965.41122      516.68501     -675.55182      1315.8804     -3072.6061      911.39968     -2161.2064    
    342000   299.50995     -601.24345     -1279.0253     -212.85767     -311.84737     -2320.9509      689.53665     -1292.4538     -3072.1135      909.74513     -2162.3684    
    343000   284.33469     -2533.8836     -2535.9291     -2779.0981     -2286.6236     -723.07818      62.206178     -940.59962     -3081.9376      863.65112     -2218.2864    
    344000   312.28455      1329.2672      2511.0714      49.981492      1426.7488     -1016.6775     -249.05424      620.93064     -3028.9962      948.54728     -2080.4489    
    345000   312.65543     -1248.7134     -3561.7318     -859.10166      674.69335      1147.9309     -1659.7427     -163.36494     -3008.8521      949.67382     -2059.1783    
    346000   305.38145      976.19942     -3003.6488      6104.4139     -172.16684      2429.601       1104.853       1862.7898     -3049.9909      927.57949     -2122.4114    
    347000   289.0085       773.29652      748.79058      2558.4581     -987.35906     -31.121051      1852.2302     -759.53911     -3029.3992      877.84754     -2151.5517    
    348000   300.66722      1771.1323      2632.8284      1452.2405      1228.3279     -917.32506      164.04061     -789.84553     -3066.5531      913.26026     -2153.2928    
    349000   288.59576      2497.8672      73.342335      3029.4758      4390.7835      1678.052       197.88721      111.00185     -3040.2269      876.59389     -2163.633     
    350000   290.58657      2129.432       411.60913      3809.3404      2167.3464      1640.2016     -1255.902      -34.417749     -3041.9634      882.64087     -2159.3225    
    351000   285.28732      1489.9775      3867.7209      3180.3209     -2578.1093     -1066.2337     -451.78697      1229.7155     -3042.8368      866.54466     -2176.2921    
    352000   289.86343     -329.17287     -1280.3976      3706.7726     -3413.8936      1146.425      -1510.8236      715.57309     -3089.0551      880.44436     -2208.6108    
    353000   295.9094       535.77829      1436.7134     -138.06314      308.6846      -3629.8916     -957.87087     -3610.7084     -2996.2624      898.80866     -2097.4537    
    354000   309.54775     -1708.7754     -691.90149     -1755.1996     -2679.2252     -1847.8375     -976.77681     -669.37367     -3050.6534      940.23442     -2110.4189    
    355000   305.53888     -87.872863     -1143.4229     -1341.8958      2221.7001      238.75447      752.8065      -104.91589     -3051.9097      928.05768     -2123.852     
    356000   291.67345      1707.7884      1355.2473      1416.3777      2351.7402     -1229.283       1303.0957      2292.8774     -3028.3296      885.94219     -2142.3874    
    357000   292.36314      2166.7528      360.6221       4519.9665      1619.6699     -1279.8754      1593.4997     -2005.8221     -3062.2993      888.03708     -2174.2623    
    358000   292.65649      770.92164      1164.144       1845.8963     -697.27541     -1195.3476      2949.8068     -1575.9175     -3040.368       888.92811     -2151.4399    
    359000   289.8981      -250.75842     -2805.6285      692.94608      1360.4071      1166.9539      766.15055     -258.36276     -3040.1526      880.54966     -2159.603     
    360000   296.75464     -927.27173     -2201.9143      777.49849     -1357.3994     -647.27198     -685.70323     -942.70528     -2993.7019      901.37602     -2092.3259    
    361000   302.43188      332.57467      1359.8859     -1151.3633      789.20144     -1302.3789      249.39126     -399.36551     -3001.3922      918.62034     -2082.7719    
    362000   302.27664      2015.3892      1045.5686      2526.256       2474.3429      792.19249     -748.77911      783.84983     -3089.8369      918.14881     -2171.688     
    363000   314.51353      1072.5682     -216.80029      526.23638      2908.2684      792.75712      916.70728      18.085391     -3048.3308      955.31768     -2093.0131    
    364000   308.0692      -1084.2653     -4826.8701      1189.165       384.90907      2852.2896     -2584.1083     -1744.4857     -3019.778       935.74338     -2084.0347    
    365000   318.73631     -132.33009      429.34401      1005.1198     -1831.4541     -81.766555      576.39285      3688.2489     -3036.1509      968.14416     -2068.0068    
    366000   296.05136      1077.8863      4849.0934      1882.7162     -3498.1506     -1352.6868     -2206.3726     -5.9557826     -3095.8979      899.23986     -2196.6581    
    367000   292.96373      1830.2846      1487.1176      1172.3521      2831.384      -1637.2565      447.78698     -587.72254     -3056.2028      889.86135     -2166.3415    
    368000   300.63229     -355.23122      2927.7313      357.1637      -4350.5887      2622.8587      299.42531     -432.16504     -2995.541       913.15417     -2082.3869    
    369000   312.81483      1423.0073      920.61123      2215.9343      1132.4764     -1316.4519     -2063.4101     -933.6406      -3044.4877      950.15797     -2094.3297    
    370000   303.3198      -721.23687     -2622.9964     -713.67449      1172.9602     -2642.0246      1046.9728      173.40662     -3079.9945      921.31735     -2158.6771    
    371000   310.70875      1836.5087      4355.5444      1219.8723     -65.890659      520.87247      234.42008      36.844478     -2975.6478      943.76088     -2031.887     
    372000   294.69491      1428.7588      942.80907      2096.3949      1247.0726      1659.1019     -1788.6278     -2159.257      -3048.8477      895.1197      -2153.728     
    373000   305.99175      133.75737     -181.61198      385.92528      196.95881      96.578199      1312.2028      1076.5047     -3040.9194      929.43325     -2111.4862    
    374000   296.85624      2143.9409      1017.0858      4240.4633      1174.2736      972.68352      2.6222979      692.9336      -2988.4913      901.68464     -2086.8067    
    375000   300.46931      2194.2515      2680.1345      1278.0232      2624.5967     -1144.2116     -2668.3425      2316.8014     -2999.5021      912.65914     -2086.843     
    376000   306.79619     -266.25375     -910.89193     -389.357        501.48768     -884.04992      529.52509      1077.702      -3043.8941      931.87669     -2112.0174    
    377000   307.70612      683.48906     -1004.5326      655.12371      2399.8761      2660.1968      2725.0939     -344.31734     -3003.5738      934.64055     -2068.9333    
    378000   314.89663      59.526742     -3931.6134     -32.581016      4142.7746      1997.9625      1109.5886      2051.9921     -3025.1921      956.48132     -2068.7108    
    379000   308.82508      3350.0138      2891.0213      2879.6746      4279.3456     -2833.6415     -1521.4653      274.54414     -3096.0692      938.03935     -2158.0299    
    380000   312.14746      1346.2796      2479.699       2276.8064     -717.66663     -1196.7885      358.92225     -955.6197      -3057.6384      948.13089     -2109.5075    
    381000   301.64895      337.26019      415.29327     -596.67763      1193.1649     -1511.7503     -235.84183      524.21027     -2994.5936      916.24224     -2078.3514    
    382000   282.88759      2104.2453      860.08603      2319.7603      3132.8896     -314.7782       714.75801     -2048.5132     -3093.9655      859.25562     -2234.7099    
    383000   289.40433     -2995.8941     -4180.5588      206.05228     -5013.1756      2863.5079      321.93166     -2777.0369     -3094.6315      879.04987     -2215.5817    
    384000   297.40832     -3118.2586     -3699.0533     -6489.8895      834.16697     -1095.2131     -594.48779      2007.08       -3039.9594      903.36154     -2136.5979    
    385000   278.21532     -137.44842      1926.5028     -2170.5342     -168.31385      1150.9028      1028.7117      637.0552      -3048.2108      845.06386     -2203.1469    
    386000   291.37927      1193.757       3768.059       236.22851     -423.01662      1131.71        2046.8302      2816.2598     -3094.8443      885.04863     -2209.7956    
    387000   293.63482     -107.82554      833.75872      442.7728      -1600.0081     -1939.3657     -315.29793      726.16647     -3101.0038      891.89975     -2209.1041    
    388000   292.68865      3037.7231      1374.3392      3265.5474      4473.2828      230.29663      423.12355      526.18199     -3061.7954      889.02579     -2172.7696    
    389000   287.46521     -701.11735     -1560.8079     -1690.7338      1148.1896     -3113.1249      1399.8197      298.80122     -3027.8173      873.15988     -2154.6574    
    390000   292.67913     -11.515323     -1149.4045      2600.0137     -1485.1551     -173.04933     -1276.1907      318.2411      -3059.7027      888.99688     -2170.7059    
    391000   292.24049     -1528.4903     -4604.2885      119.24313     -100.42551     -1406.5061     -1791.6323      408.80633     -3067.0914      887.66454     -2179.4268    
    392000   292.26579      1621.9383      2043.1329      2187.9267      634.7552       1165.3281     -1452.995       212.01852     -3011.6202      887.74139     -2123.8788    
    393000   292.79787     -1210.9471     -1575.5527     -1858.0487     -199.23993     -28.292628      514.36761      2725.0723     -3028.5116      889.35755     -2139.1541    
    394000   303.6223      -846.71001     -984.86532     -2370.9646      815.69991      921.63417     -2639.4229     -123.44875     -3038.251       922.23616     -2116.0148    
    395000   297.88353      1969.6996     -1081.1004      4097.1531      2893.0461      451.19061      3155.2496      277.82443     -2997.9662      904.80497     -2093.1612    
    396000   304.81284      2921.37        513.58601      2367.2705      5883.2533     -1074.2025     -2070.5572     -731.85605     -3038.8097      925.85238     -2112.9573    
    397000   309.11501      3682.3789      5426.824       3480.4846      2139.8279     -545.4056      -143.93588     -690.28781     -3045.8368      938.91998     -2106.9168    
    398000   297.79438      469.72842      107.0603      -177.08478      1479.2097      859.10298     -1400.3593     -65.634293     -2995.9369      904.53419     -2091.4027    
    399000   295.91609      566.16956      2463.2876     -1426.673       661.89407      2727.2299     -544.65409     -1695.163      -3007.1603      898.82897     -2108.3313    
    400000   285.08634     -12.193723     -497.16886     -1178.7361      1639.3238     -1703.7465     -1539.6606      582.37931     -3011.5528      865.9342      -2145.6186    
    401000   295.06211      1503.2895      3036.54        2845.5915     -1372.263      -1288.0527      1342.116       71.431284     -3074.3685      896.23506     -2178.1335    
    402000   296.77945      419.86163      175.51306      1793.1309     -709.05905      790.48962      2294.4828     -1233.9094     -3073.0862      901.45137     -2171.6349    
    403000   295.02411      286.75755      1188.6306      1376.1583     -1704.5163     -2450.5349      1054.1229     -614.18308     -3028.8986      896.11964     -2132.779     
    404000   290.51328     -913.89545     -1481.4221     -1274.1116      13.847342     -617.10986      677.11837     -2780.7713     -3041.9957      882.41825     -2159.5775    
    405000   297.89766      2990.3921      2277.2804      4158.0831      2535.813      -1933.1037      2357.5294     -757.63867     -3021.3157      904.84789     -2116.4678    
    406000   295.03767     -19.542998      1032.4913     -550.67026     -540.45        -1155.574      -593.97189      1678.6484     -3043.9219      896.16081     -2147.7611    
    407000   293.02517     -1215.9664     -5879.2785      1829.4492      401.93005     -1904.5965     -84.988502      3366.6523     -3031.4218      890.04797     -2141.3738    
    408000   294.7723       683.19135      2307.1841      106.41795     -364.02795     -64.467595     -1717.8109     -287.87055     -3025.053       895.35479     -2129.6982    
    409000   308.22905      3826.0204      5286.4915      2869.4026      3322.1672     -2949.6732     -773.748       -1035.7903     -3066.7467      936.22894     -2130.5177    
    410000   299.2748       248.29982      2857.1883     -390.74335     -1721.5455      1924.7828     -400.67026     -668.56529     -3009.8684      909.03089     -2100.8376    
    411000   292.05601      1426.0361      1246.5401     -81.879774      3113.4479      188.39462     -1133.7492      42.260037     -3052.2773      887.1042      -2165.1731    
    412000   299.5418      -36.177623      1546.034       2265.7684     -3920.3353     -903.49705      1136.0173      875.41028     -3063.8323      909.84188     -2153.9904    
    413000   293.98576     -659.52405     -415.7547      -1016.7218     -546.0956      -2027.1425     -1274.6247     -473.08384     -3035.1395      892.9657      -2142.1738    
    414000   296.76288      1382.3849      776.85094      1637.7354      1732.5683      601.76406      543.46686     -221.0436      -3055.8311      901.40107     -2154.4301    
    415000   290.69147     -550.8498      -182.72341     -24.879532     -1444.9465      165.21768     -276.00513     -2511.7464     -3054.2043      882.95949     -2171.2448    
    416000   298.55955      792.96146     -3055.1814      3252.6385      2181.4273      8.6788963     -398.80538      167.62294     -2957.7438      906.85834     -2050.8855    
    417000   293.61927      1107.2164      1593.8897      2415.9639     -688.20451     -512.78406     -540.38302      330.70486     -3015.8994      891.85252     -2124.0468    
    418000   294.09612      944.07284      3841.4096     -1986.6052      977.41418     -4207.7333     -293.95483     -413.45028     -3060.5625      893.30092     -2167.2616    
    419000   296.10554      384.00722     -3817.6802      4995.212      -25.510135     -1229.0014     -92.599174     -563.09879     -3035.3761      899.40443     -2135.9717    
    420000   292.27634     -1012.5437     -2770.7673      420.61192     -687.4758       2003.2267      114.48747     -1006.2928     -3054.9361      887.77344     -2167.1626    
    421000   301.55554      1176.0793      853.91599     -778.15488      3452.4768      625.90273     -407.08328     -1128.8926     -3051.5575      915.95851     -2135.599     
    422000   296.36164      1335.8541      4724.9871      473.5011      -1190.9261     -1971.949       1108.1119     -1384.8635     -3101.3485      900.18231     -2201.1662    
    423000   286.70895     -1251.7569     -2566.2929      1019.8944     -2208.8721      2520.6962      568.99931     -2216.5237     -3046.3791      870.86279     -2175.5163    
    424000   299.57705      827.96072      1004.871       1625.3755     -146.36429     -818.15104     -1213.3701      2978.3224     -3032.9066      909.94894     -2122.9577    
    425000   297.93464      2605.1295      2174.7028      2046.3242      3594.3615     -1288.8581      159.67317      271.74501     -3026.2663      904.96022     -2121.3061    
[...]
   9899000   288.92719      596.7704       853.71971      905.60106      30.990438     -338.50935     -1051.4413     -985.34772     -2994.2838      877.60058     -2116.6832    
   9900000   291.15756      176.94453     -351.70482     -339.64947      1222.1879      642.13771     -946.54439      60.729469     -3010.4601      884.37519     -2126.0849    
   9901000   308.23513      1367.1655      3632.5654      2028.8092     -1559.8781     -1373.9941      576.77124     -880.59947     -3077.8657      936.2474      -2141.6183    
   9902000   296.97063      1515.9736      1263.8281      1795.845       1488.2476     -494.43802     -749.72924      947.92789     -3001.2063      902.0321      -2099.1742    
   9903000   298.05175      777.41945     -1591.0504      116.06447      3807.2443     -3357.3699      386.51535      788.30388     -2995.9721      905.31592     -2090.6562    
   9904000   309.84247     -905.25663      1056.5772     -3045.857      -726.49005     -569.36975      1359.5381      1986.9112     -3012.983       941.1296      -2071.8534    
   9905000   312.59843     -2338.9719     -5354.9445     -1119.6243     -542.34679      1192.2581      1447.824      -961.47979     -3024.6283      949.50068     -2075.1276    
   9906000   318.31024     -1936.8584      70.524389     -3399.8704     -2481.2292      1492.5278     -733.00769      674.75414     -3040.3981      966.84998     -2073.5481    
   9907000   292.45182      365.77249     -654.58889      3872.7431     -2120.8368      3393.7849      638.74351     -211.78587     -3078.0381      888.30644     -2189.7317    
   9908000   289.41009      1279.525       1245.6286     -704.95566      3297.9019      1140.7679      3114.6122     -775.90788     -3082.359       879.06736     -2203.2917    
   9909000   301.2399      -1326.1335     -1056.6074     -3777.3338      855.54077     -1363.189      -428.79809     -2246.1087     -2996.7499      914.99976     -2081.7501    
   9910000   289.02149     -2817.2705     -1608.4249     -1504.5802     -5338.8065      133.2983       1565.4841     -828.81047     -2993.7078      877.88699     -2115.8208    
   9911000   288.42559     -2023.1481     -4694.6294      1560.2192     -2935.0341      1277.9799     -1382.9189      2001.9823     -3057.2908      876.07698     -2181.2138    
   9912000   293.95748     -426.69645     -608.48009     -2129.0681      1457.4589      522.27036     -1572.6625     -2513.289      -3128.4483      892.87981     -2235.5685    
   9913000   309.70315     -2303.577      -1077.5197     -6343.3852      510.17378      425.15431     -2420.4835      342.03776     -2984.8232      940.70643     -2044.1168    
   9914000   293.06905      1156.1799      921.36846      1963.2712      583.89988     -269.14759      3607.8645      523.27537     -3035.1939      890.18124     -2145.0127    
   9915000   292.60031      2124.3741      1345.2332      6023.7312     -995.84224     -2130.7391     -208.29591     -2208.9727     -3039.6777      888.75747     -2150.9203    
   9916000   294.2902       1910.8956      1965.1876      1006.5563      2760.9431      886.08532     -960.93933     -262.92397     -3032.054       893.89043     -2138.1636    
   9917000   298.0157       917.294       -1116.1189      937.40592      2930.5949      2447.4013      351.12609     -386.72939     -3019.8558      905.20644     -2114.6493    
   9918000   295.48558     -400.09074      855.9667      -4294.9426      2238.7037      1690.4544      886.81146     -14.653172     -2997.4202      897.52133     -2099.8989    
   9919000   297.28266      154.13747      1506.6392     -1583.068       538.84123     -2855.6647      265.5474      -99.087935     -3057.9455      902.97986     -2154.9656    
   9920000   294.82684      270.36089     -271.79019      1601.1999     -518.32709     -1456.243      -1743.1506     -1024.0044     -3023.9714      895.52045     -2128.451     
   9921000   297.85226     -398.67271     -1657.2796      929.4518      -468.19034     -1755.7445      432.78977      225.74028     -3066.461       904.71        -2161.751     
   9922000   295.51698     -2318.5261     -47.453091     -976.78345     -5931.3418     -2004.0129      1717.6965     -1082.0154     -3083.0873      897.6167      -2185.4706    
   9923000   284.98148     -495.3416      -421.88899      385.86577     -1450.0016     -396.68809     -336.24871      2143.9024     -3061.4252      865.6157      -2195.8095    
   9924000   296.10552     -77.3111        13.147105     -1013.0498      767.96938     -19.735499     -1793.6527     -996.89481     -3038.003       899.40435     -2138.5987    
   9925000   282.4393       486.87206      833.77667      134.27346      492.56606      906.2892      -1838.1907      1306.3672     -3035.2995      857.89395     -2177.4055    
   9926000   302.94363      592.28474     -5062.0169      3040.1003      3798.7708     -1517.7465     -2160.4941      289.92901     -2993.2829      920.17475     -2073.1082    
   9927000   299.31597     -2320.5442     -2010.4977     -3291.72       -1659.415       791.25394     -1938.7901     -144.99982     -2994.6211      909.15594     -2085.4651    
   9928000   302.34831      719.74407     -1214.9409      3813.9835     -439.81039      866.2943      -980.01002     -1186.49       -3043.6981      918.36651     -2125.3316    
   9929000   293.24197      4188.322       1668.5487      5959.5868      4936.8305     -1129.4534      1283.207      -2724.4372     -2998.4649      890.7065      -2107.7584    
   9930000   283.81181      2788.2165      2079.1328      2394.0082      3891.5086      1244.8815     -506.90251     -2003.7804     -3047.3552      862.06289     -2185.2923    
   9931000   293.15987      1176.4703      2663.5443     -290.01164      1155.8783      100.80351      2209.775       57.008551     -3064.7751      890.45712     -2174.318     
   9932000   304.20715      1360.077       110.86817      3518.6323      450.73053      2142.7356      1542.9868     -2648.6188     -3057.4706      924.01262     -2133.458     
   9933000   301.71536      1787.8302     -2226.5846      3130.7684      4459.3069      696.85065      1541.0309     -1498.6655     -3041.4688      916.44395     -2125.0248    
   9934000   300.75569     -1142.0973     -1608.2857     -249.8749      -1568.1313      901.63388      305.85076     -415.05332     -3034.7354      913.52899     -2121.2064    
   9935000   303.92246      3288.2317      5485.253       3735.238       644.20409     -1320.2531      82.35888      -1288.023      -3028.6301      923.14789     -2105.4822    
   9936000   285.33968      911.50327      2725.1288      1251.4674     -1242.0864     -669.59773      223.40664      1257.2875     -3052.5539      866.70372     -2185.8502    
   9937000   289.74438     -172.01145      1743.1514     -1764.9919     -494.19393     -1696.5156      1641.936       503.46226     -3045.2191      880.08275     -2165.1363    
   9938000   294.62045     -1869.2734     -849.7684      -2893.1358     -1864.9159      160.53773     -1993.1008      1300.3136     -3076.7345      894.89354     -2181.8409    
   9939000   303.48156     -706.32006      1964.6052     -3925.6135     -157.95193     -767.20354     -582.16794     -1041.2767     -3069.1692      921.80869     -2147.3605    
   9940000   304.09983     -858.2541       1037.3269      90.457537     -3702.5468      1716.511       182.69924      5616.1015     -3054.8985      923.68665     -2131.2119    
   9941000   299.29541     -1229.0426     -2390.651      -1252.1174     -44.35946      -2698.4721     -1357.2109     -1333.7499     -3020.0066      909.09348     -2110.9131    
   9942000   303.10882     -2927.7932     -3432.6461     -4058.7209     -1292.0126      856.25949     -2806.5047      308.83859     -3050.7528      920.67651     -2130.0763    
   9943000   299.74815      3001.6579      5813.4798      4090.7081     -899.2141      -1155.8251      3009.1319     -405.94664     -3037.6263      910.46866     -2127.1577    
   9944000   292.24491      1933.9685      2386.6491      2725.5239      689.73259     -2621.7591     -131.69945     -148.54841     -3038.9571      887.67797     -2151.2791    
   9945000   288.75112      2054.3594      1822.5863      556.32146      3784.1703     -609.24992     -1127.7978      841.53796     -3064.6718      877.06579     -2187.606     
   9946000   280.99792      1512.5057      310.37416      2008.135       2219.008      -1333.2126     -3452.3649      454.64964     -3048.4746      853.51584     -2194.9587    
   9947000   289.10266      1481.2067      383.61966      2854.9527      1205.0477     -1487.9068      207.16311     -764.52535     -3069.0642      878.13356     -2190.9306    
   9948000   292.22985      2222.0471      3944.8985      1561.8737      1159.3692      1707.2992     -655.81984      264.43181     -3040.3746      887.63221     -2152.7424    
   9949000   301.49245      973.72487      411.75114     -32.129867      2541.5533     -791.91543     -1665.0126     -1751.4578     -3054.6263      915.76687     -2138.8595    
   9950000   302.65371      2691.7084      4772.0106      380.89316      2922.2216     -1377.1112      641.27549     -1848.2101     -3009.5968      919.29412     -2090.3026    
   9951000   289.12113     -2086.4762     -2259.5935     -954.96532     -3044.8699     -1011.5781      2448.9646      531.92623     -2977.4714      878.18966     -2099.2818    
   9952000   304.60465      34.812162     -4775.0939      3603.2028      1276.3275     -1706.4592      186.9513      -8.1004255     -3061.7543      925.22        -2136.5343    
   9953000   298.47181      430.00976      3013.9328     -1376.6364     -347.26717     -3047.3584      1952.9925     -1244.5887     -3005.0246      906.59184     -2098.4328    
   9954000   300.07093     -145.29359     -922.72498     -2042.0298      2528.874       328.26055      1603.0949      1053.0508     -3032.9484      911.44909     -2121.4993    
   9955000   296.39515      3766.3789      3700.3408      4046.3468      3552.4492      877.41634      1588.5918      857.6478      -3056.6125      900.28411     -2156.3284    
   9956000   296.87458      4492.6293      6522.4977      4612.1958      2343.1942     -617.94344     -1193.9214      2014.9895     -3019.6622      901.74034     -2117.9219    
   9957000   299.47715      3402.5767      6750.3281      1933.527       1523.8749     -2295.5089      1219.7321      876.19968     -3059.2601      909.64551     -2149.6146    
   9958000   305.80257     -660.10448     -1174.6537     -366.03835     -439.62141      207.83893      162.29063     -1071.0777     -3044.1843      928.85864     -2115.3257    
   9959000   286.91954      1489.0281      34.729748      4144.197       288.15764     -2722.5761     -1266.1604      463.28712     -3026.8274      871.50246     -2155.325     
   9960000   290.33433     -476.85446     -942.25422      2458.2759     -2946.5851     -936.31518      302.92086     -31.548992     -3052.1386      881.8747      -2170.2639    
   9961000   293.62325     -2141.3312     -2308.2714     -2587.8452     -1527.8771     -1434.2893      1703.1158      330.1488      -3069.1408      891.86461     -2177.2762    
   9962000   290.7328      -463.90226     -2533.3289      1065.5065      76.1157        1733.1712      384.24891      2433.2716     -3024.1052      883.08502     -2141.0202    
   9963000   300.10052     -1464.2096     -2144.952       333.95462     -2581.6314      1474.4421      2479.8012     -135.80058     -3016.0193      911.53896     -2104.4803    
   9964000   303.54583      809.68781     -567.52916      2248.3131      748.27953     -335.96462     -1825.4561      1433.4265     -3056.8854      922.0039      -2134.8815    
   9965000   296.30466     -1720.6345     -558.54046     -3177.6602     -1425.7029      1636.735       2429.6387      3147.1964     -2998.1035      900.00923     -2098.0943    
   9966000   302.20139      3214.5687      2360.6277      2963.7922      4319.2864      597.68711     -1597.5648      1969.6267     -3078.6907      917.92023     -2160.7704    
   9967000   284.5061       1936.5067      1324.8858      1360.89        3123.7444      950.88454      572.15076      1149.5804     -3023.9465      864.17174     -2159.7747    
   9968000   310.62279      1523.063       412.23124      2222.2456      1934.712      -1874.0036     -2332.3499     -611.59539     -3023.379       943.49976     -2079.8792    
   9969000   300.33453      1815.3824      2452.9439      2210.8371      782.36607     -2594.0771      461.41164      1072.3958     -3023.9319      912.24975     -2111.6821    
   9970000   296.85442     -1428.8432     -1553.1118     -4511.2142      1777.7965     -2577.4796      1427.8027     -1639.3042     -3036.8207      901.67909     -2135.1416    
   9971000   301.31421      1086.7612      2893.6913     -2402.1296      2768.7218      287.27837      1537.052       3030.1441     -3048.5824      915.22547     -2133.3569    
   9972000   291.7563       1591.9687     -267.83336      1505.1279      3538.6115      248.47869      212.49837      114.96581     -3069.5562      886.19385     -2183.3623    
   9973000   288.50043      515.91845     -483.65259     -3.6057692      2035.0137     -383.58963      76.509242     -287.84644     -3048.9846      876.30433     -2172.6803    
   9974000   288.40497      642.80826     -3035.607       4813.4897      150.54212      742.89221      608.62741     -168.43747     -3046.5761      876.01437     -2170.5617    
   9975000   291.63256      1225.614       1438.0494      3323.8525     -1085.0599     -2600.8677     -556.62054     -2111.2698     -3082.3438      885.818       -2196.5258    
   9976000   292.44506     -1395.2761     -306.40163     -2202.2334     -1677.1932      2516.5479     -749.74791      407.64397     -3038.4796      888.28592     -2150.1937    
   9977000   295.20089      1108.7411      1397.508       2049.5843     -120.86896     -1129.2308     -1357.1975      565.00653     -3044.1872      896.6566      -2147.5306    
   9978000   298.48848     -158.56126     -149.08757      4393.2839     -4719.8802     -521.52099     -1255.5084      797.68496     -3055.4678      906.64248     -2148.8253    
   9979000   291.47655      2168.8576      4325.4634      754.64492      1426.4646     -158.34554      3584.3017     -707.07528     -3070.8313      885.34413     -2185.4872    
   9980000   293.95095      922.37708      2797.6787     -829.13858      798.59117      60.889586      997.55061      594.03398     -3078.0243      892.85998     -2185.1643    
   9981000   308.76932      2636.0758      2892.8419      3407.488       1607.8974      1401.9146     -1224.1192     -1847.092      -3064.8237      937.86995     -2126.9538    
   9982000   303.87851      3799.8399      4732.334       4265.8417      2401.3439     -1009.0518     -1030.095      -1187.3309     -3028.7499      923.01438     -2105.7355    
   9983000   297.22454      1587.5078      2177.6914      2034.2205      550.61137     -616.87281     -146.89022      1103.5923     -3005.681       902.80332     -2102.8777    
   9984000   286.8525       3248.9649     -234.33475      4420.3577      5560.8716      1210.3706     -1281.9857     -198.7049      -3019.8735      871.29881     -2148.5747    
   9985000   304.61986     -745.11438     -657.62278     -1322.4652     -255.25518      1946.299       478.48336     -1530.1852     -3023.4831      925.26619     -2098.2169    
   9986000   298.03632      435.90007      2443.0393      493.10139     -1628.4405      2673.8387      2128.4293      733.30445     -3015.7812      905.26907     -2110.5122    
   9987000   302.36921      2018.2861      4157.4768      207.54567      1689.8357     -1537.0499     -647.53928      105.61721     -3069.76        918.42996     -2151.3301    
   9988000   294.38711      364.19274     -1020.9513      1619.95        493.57948      1215.1067      546.96568      187.6403      -3024.9161      894.18478     -2130.7313    
   9989000   306.09349      2088.8035      2053.136       2667.8248      1545.4498      2915.0093      823.82811     -237.39418     -3053.7508      929.74227     -2124.0085    
   9990000   302.71836      1035.4286      2039.2316     -496.56693      1563.6212      42.274929     -2604.4974     -545.79764     -3052.5068      919.49049     -2133.0163    
   9991000   295.11278      481.46467      1255.9933      1527.1566     -1338.7559     -1754.3982      1021.1962     -856.55904     -3014.5402      896.38897     -2118.1512    
   9992000   296.28537     -996.06732     -2162.4713     -1021.1925      195.46176      606.9974       209.02734     -495.08059     -3013.8237      899.95064     -2113.873     
   9993000   290.96074      965.60999      1525.8411      1040.6445      330.34442     -1766.5041     -926.8668       1289.2375     -3030.8053      883.77738     -2147.0279    
   9994000   289.30056     -488.63032      929.72831     -1092.376      -1303.2433     -256.68325      726.24457     -709.64808     -3041.1925      878.73465     -2162.4578    
   9995000   290.3914       1888.4323      2927.4363      1095.1173      1642.7434     -13.954409     -321.70377      680.1004      -3062.3015      882.04804     -2180.2535    
   9996000   287.74531      1440.1898      207.41027      4525.0469     -411.88776     -442.42551      2184.603      -2183.1241     -3038.3335      874.01066     -2164.3228    
   9997000   304.76045      4885.877       4524.8744      6191.2212      3941.5356     -1231.5301      255.82664     -276.04115     -3018.3998      925.69323     -2092.7066    
   9998000   302.12176      3269.7314      2477.8959      2320.2037      5011.0944     -986.30879     -2201.2334      1659.0879     -3034.8814      917.67837     -2117.2031    
   9999000   290.43554      931.5681       66.869901      3360.1643     -632.32985     -2436.5372      1330.8865      323.14182     -3051.0088      882.18209     -2168.8267    
  10000000   292.77715     -1724.6281     -1371.8985     -1912.347      -1889.6388      553.38922     -188.37647     -1962.5807     -3087.4411      889.29461     -2198.1465    
Loop time of 26694.2 on 8 procs for 10000000 steps with 1020 atoms

Performance: 32.367 ns/day, 0.742 hours/ns, 374.614 timesteps/s, 382.106 katom-step/s
94.2% CPU use with 8 MPI tasks x 1 OpenMP threads

MPI task timing breakdown:
Section |  min time  |  avg time  |  max time  |%varavg| %total
---------------------------------------------------------------
Pair    | 12854      | 14129      | 15705      | 809.3 | 52.93
Bond    | 57.48      | 59.865     | 63.353     |  22.3 |  0.22
Kspace  | 6825.5     | 8418.3     | 9696.8     |1040.6 | 31.54
Neigh   | 1303       | 1303.4     | 1303.7     |   0.6 |  4.88
Comm    | 2420.8     | 2476.7     | 2499.4     |  48.7 |  9.28
Output  | 6.8834     | 8.7722     | 10.807     |  42.6 |  0.03
Modify  | 144.29     | 147.07     | 149.78     |  16.4 |  0.55
Other   |            | 151.4      |            |       |  0.57

Nlocal:          127.5 ave         136 max         119 min
Histogram: 1 0 1 0 2 1 1 1 0 1
Nghost:         4603.5 ave        4641 max        4538 min
Histogram: 1 0 0 1 1 0 1 1 1 2
Neighs:          54223 ave       58496 max       47493 min
Histogram: 1 1 1 0 0 0 0 1 1 3

Total # of neighbors = 433784
Ave neighs/atom = 425.27843
Ave special neighs/atom = 2
Neighbor list builds = 445247
Dangerous builds = 0

# 保存數據與輸出速度
write_data tip3p_flexible_nvt.data nocoeff
System init for write_data ...
Ewald initialization ...
  using 12-bit tables for long-range coulomb (src/kspace.cpp:342)
  G vector (1/distance) = 0.23880848
  estimated absolute RMS force accuracy = 0.033265155
  estimated relative force accuracy = 0.00010017703
  KSpace vectors: actual max1d max3d = 257 5 665
                  kxmax kymax kzmax  = 5 5 5
Generated 1 of 1 mixed pair_coeff terms from arithmetic mixing rule
Total wall time: 7:24:54
